Warning: no access to tty (Bad file descriptor).
Thus no job control in this shell.

                                 *****************
                                 * O   R   C   A *
                                 *****************

           --- An Ab Initio, DFT and Semiempirical electronic structure package ---

                  #######################################################
                  #                        -***-                        #
                  #          Department of theory and spectroscopy      #
                  #               Directorship: Frank Neese             #
                  #        Max Planck Institute fuer Kohlenforschung    #
                  #                Kaiser Wilhelm Platz 1               #
                  #                 D-45470 Muelheim/Ruhr               #
                  #                      Germany                        #
                  #                                                     #
                  #                  All rights reserved                #
                  #                        -***-                        #
                  #######################################################


                         Program Version 4.2.1 -  RELEASE  -


 With contributions from (in alphabetic order):
   Daniel Aravena         : Magnetic Suceptibility
   Michael Atanasov       : Ab Initio Ligand Field Theory (pilot matlab implementation)
   Alexander A. Auer      : GIAO ZORA, VPT2
   Ute Becker             : Parallelization
   Giovanni Bistoni       : ED, misc. LED, open-shell LED, HFLD
   Martin Brehm           : Molecular dynamics
   Dmytro Bykov           : SCF Hessian
   Vijay G. Chilkuri      : MRCI spin determinant printing, contributions to CSF-ICE
   Dipayan Datta          : RHF DLPNO-CCSD density
   Achintya Kumar Dutta   : EOM-CC, STEOM-CC
   Dmitry Ganyushin       : Spin-Orbit,Spin-Spin,Magnetic field MRCI
   Miquel Garcia          : C-PCM Hessian, Gaussian charge scheme
   Yang Guo               : DLPNO-NEVPT2, CIM, IAO-localization
   Andreas Hansen         : Spin unrestricted coupled pair/coupled cluster methods
   Benjamin Helmich-Paris : CASSCF linear response (MC-RPA)
   Lee Huntington         : MR-EOM, pCC
   Robert Izsak           : Overlap fitted RIJCOSX, COSX-SCS-MP3, EOM
   Christian Kollmar      : KDIIS, OOCD, Brueckner-CCSD(T), CCSD density
   Simone Kossmann        : Meta GGA functionals, TD-DFT gradient, OOMP2, MP2 Hessian
   Martin Krupicka        : AUTO-CI
   Lucas Lang             : DCDCAS
   Dagmar Lenk            : GEPOL surface, SMD
   Dimitrios Liakos       : Extrapolation schemes; Compound Job, initial MDCI parallelization
   Dimitrios Manganas     : Further ROCIS development; embedding schemes
   Dimitrios Pantazis     : SARC Basis sets
   Taras Petrenko         : DFT Hessian,TD-DFT gradient, ASA, ECA, R-Raman, ABS, FL, XAS/XES, NRVS
   Peter Pinski           : DLPNO-MP2, DLPNO-MP2 Gradient
   Christoph Reimann      : Effective Core Potentials
   Marius Retegan         : Local ZFS, SOC
   Christoph Riplinger    : Optimizer, TS searches, QM/MM, DLPNO-CCSD(T), (RO)-DLPNO pert. Triples
   Tobias Risthaus        : Range-separated hybrids, TD-DFT gradient, RPA, STAB
   Michael Roemelt        : Original ROCIS implementation
   Masaaki Saitow         : Open-shell DLPNO-CCSD energy and density
   Barbara Sandhoefer     : DKH picture change effects
   Avijit Sen             : IP-ROCIS
   Kantharuban Sivalingam : CASSCF convergence, NEVPT2, FIC-MRCI
   Bernardo de Souza      : ESD, SOC TD-DFT
   Georgi Stoychev        : AutoAux, RI-MP2 NMR
   Willem Van den Heuvel  : Paramagnetic NMR
   Boris Wezisla          : Elementary symmetry handling
   Frank Wennmohs         : Technical directorship


 We gratefully acknowledge several colleagues who have allowed us to
 interface, adapt or use parts of their codes:
   Stefan Grimme, W. Hujo, H. Kruse,             : VdW corrections, initial TS optimization,
                  C. Bannwarth                     DFT functionals, gCP, sTDA/sTD-DF
   Ed Valeev, F. Pavosevic, A. Kumar             : LibInt (2-el integral package), F12 methods
   Garnet Chan, S. Sharma, J. Yang, R. Olivares  : DMRG
   Ulf Ekstrom                                   : XCFun DFT Library
   Mihaly Kallay                                 : mrcc  (arbitrary order and MRCC methods)
   Andreas Klamt, Michael Diedenhofen            : otool_cosmo (COSMO solvation model)
   Jiri Pittner, Ondrej Demel                    : Mk-CCSD
   Frank Weinhold                                : gennbo (NPA and NBO analysis)
   Christopher J. Cramer and Donald G. Truhlar   : smd solvation model
   Lars Goerigk                                  : TD-DFT with DH, B97 family of functionals
   V. Asgeirsson, H. Jonsson                     : NEB implementation
   FAccTs GmbH                                   : IRC, NEB, NEB-TS, Multilevel, MM, QM/MM, CI optimization
   S Lehtola, MJT Oliveira, MAL Marques          : LibXC Library


 Your calculation uses the libint2 library for the computation of 2-el integrals
 For citations please refer to: http://libint.valeyev.net

 Your ORCA version has been built with support for libXC version: 4.2.3
 For citations please refer to: https://tddft.org/programs/libxc/

 This ORCA versions uses:
   CBLAS   interface :  Fast vector & matrix operations
   LAPACKE interface :  Fast linear algebra routines
   SCALAPACK package :  Parallel linear algebra routines


[file orca_tools/Tool-Scanner/qcscan1.cpp, line 102]: 
	 Unknown identifier in CPCM block line    7  : 
	 Last token : Â
[file orca_tools/Tool-Scanner/qcscan1.cpp, line 102]: 
	 Unknown identifier in CPCM block line    7  : 
	 Last token : Â
Warning: no access to tty (Bad file descriptor).
Thus no job control in this shell.

                                 *****************
                                 * O   R   C   A *
                                 *****************

           --- An Ab Initio, DFT and Semiempirical electronic structure package ---

                  #######################################################
                  #                        -***-                        #
                  #          Department of theory and spectroscopy      #
                  #               Directorship: Frank Neese             #
                  #        Max Planck Institute fuer Kohlenforschung    #
                  #                Kaiser Wilhelm Platz 1               #
                  #                 D-45470 Muelheim/Ruhr               #
                  #                      Germany                        #
                  #                                                     #
                  #                  All rights reserved                #
                  #                        -***-                        #
                  #######################################################


                         Program Version 4.2.1 -  RELEASE  -


 With contributions from (in alphabetic order):
   Daniel Aravena         : Magnetic Suceptibility
   Michael Atanasov       : Ab Initio Ligand Field Theory (pilot matlab implementation)
   Alexander A. Auer      : GIAO ZORA, VPT2
   Ute Becker             : Parallelization
   Giovanni Bistoni       : ED, misc. LED, open-shell LED, HFLD
   Martin Brehm           : Molecular dynamics
   Dmytro Bykov           : SCF Hessian
   Vijay G. Chilkuri      : MRCI spin determinant printing, contributions to CSF-ICE
   Dipayan Datta          : RHF DLPNO-CCSD density
   Achintya Kumar Dutta   : EOM-CC, STEOM-CC
   Dmitry Ganyushin       : Spin-Orbit,Spin-Spin,Magnetic field MRCI
   Miquel Garcia          : C-PCM Hessian, Gaussian charge scheme
   Yang Guo               : DLPNO-NEVPT2, CIM, IAO-localization
   Andreas Hansen         : Spin unrestricted coupled pair/coupled cluster methods
   Benjamin Helmich-Paris : CASSCF linear response (MC-RPA)
   Lee Huntington         : MR-EOM, pCC
   Robert Izsak           : Overlap fitted RIJCOSX, COSX-SCS-MP3, EOM
   Christian Kollmar      : KDIIS, OOCD, Brueckner-CCSD(T), CCSD density
   Simone Kossmann        : Meta GGA functionals, TD-DFT gradient, OOMP2, MP2 Hessian
   Martin Krupicka        : AUTO-CI
   Lucas Lang             : DCDCAS
   Dagmar Lenk            : GEPOL surface, SMD
   Dimitrios Liakos       : Extrapolation schemes; Compound Job, initial MDCI parallelization
   Dimitrios Manganas     : Further ROCIS development; embedding schemes
   Dimitrios Pantazis     : SARC Basis sets
   Taras Petrenko         : DFT Hessian,TD-DFT gradient, ASA, ECA, R-Raman, ABS, FL, XAS/XES, NRVS
   Peter Pinski           : DLPNO-MP2, DLPNO-MP2 Gradient
   Christoph Reimann      : Effective Core Potentials
   Marius Retegan         : Local ZFS, SOC
   Christoph Riplinger    : Optimizer, TS searches, QM/MM, DLPNO-CCSD(T), (RO)-DLPNO pert. Triples
   Tobias Risthaus        : Range-separated hybrids, TD-DFT gradient, RPA, STAB
   Michael Roemelt        : Original ROCIS implementation
   Masaaki Saitow         : Open-shell DLPNO-CCSD energy and density
   Barbara Sandhoefer     : DKH picture change effects
   Avijit Sen             : IP-ROCIS
   Kantharuban Sivalingam : CASSCF convergence, NEVPT2, FIC-MRCI
   Bernardo de Souza      : ESD, SOC TD-DFT
   Georgi Stoychev        : AutoAux, RI-MP2 NMR
   Willem Van den Heuvel  : Paramagnetic NMR
   Boris Wezisla          : Elementary symmetry handling
   Frank Wennmohs         : Technical directorship


 We gratefully acknowledge several colleagues who have allowed us to
 interface, adapt or use parts of their codes:
   Stefan Grimme, W. Hujo, H. Kruse,             : VdW corrections, initial TS optimization,
                  C. Bannwarth                     DFT functionals, gCP, sTDA/sTD-DF
   Ed Valeev, F. Pavosevic, A. Kumar             : LibInt (2-el integral package), F12 methods
   Garnet Chan, S. Sharma, J. Yang, R. Olivares  : DMRG
   Ulf Ekstrom                                   : XCFun DFT Library
   Mihaly Kallay                                 : mrcc  (arbitrary order and MRCC methods)
   Andreas Klamt, Michael Diedenhofen            : otool_cosmo (COSMO solvation model)
   Jiri Pittner, Ondrej Demel                    : Mk-CCSD
   Frank Weinhold                                : gennbo (NPA and NBO analysis)
   Christopher J. Cramer and Donald G. Truhlar   : smd solvation model
   Lars Goerigk                                  : TD-DFT with DH, B97 family of functionals
   V. Asgeirsson, H. Jonsson                     : NEB implementation
   FAccTs GmbH                                   : IRC, NEB, NEB-TS, Multilevel, MM, QM/MM, CI optimization
   S Lehtola, MJT Oliveira, MAL Marques          : LibXC Library


 Your calculation uses the libint2 library for the computation of 2-el integrals
 For citations please refer to: http://libint.valeyev.net

 Your ORCA version has been built with support for libXC version: 4.2.3
 For citations please refer to: https://tddft.org/programs/libxc/

 This ORCA versions uses:
   CBLAS   interface :  Fast vector & matrix operations
   LAPACKE interface :  Fast linear algebra routines
   SCALAPACK package :  Parallel linear algebra routines


[file orca_tools/Tool-Scanner/qcscan1.cpp, line 102]: 
	 Unknown identifier in CPCM block line    7  : 
	 Last token : Â
[file orca_tools/Tool-Scanner/qcscan1.cpp, line 102]: 
	 Unknown identifier in CPCM block line    7  : 
	 Last token : Â
Warning: no access to tty (Bad file descriptor).
Thus no job control in this shell.

                                 *****************
                                 * O   R   C   A *
                                 *****************

           --- An Ab Initio, DFT and Semiempirical electronic structure package ---

                  #######################################################
                  #                        -***-                        #
                  #          Department of theory and spectroscopy      #
                  #               Directorship: Frank Neese             #
                  #        Max Planck Institute fuer Kohlenforschung    #
                  #                Kaiser Wilhelm Platz 1               #
                  #                 D-45470 Muelheim/Ruhr               #
                  #                      Germany                        #
                  #                                                     #
                  #                  All rights reserved                #
                  #                        -***-                        #
                  #######################################################


                         Program Version 4.2.1 -  RELEASE  -


 With contributions from (in alphabetic order):
   Daniel Aravena         : Magnetic Suceptibility
   Michael Atanasov       : Ab Initio Ligand Field Theory (pilot matlab implementation)
   Alexander A. Auer      : GIAO ZORA, VPT2
   Ute Becker             : Parallelization
   Giovanni Bistoni       : ED, misc. LED, open-shell LED, HFLD
   Martin Brehm           : Molecular dynamics
   Dmytro Bykov           : SCF Hessian
   Vijay G. Chilkuri      : MRCI spin determinant printing, contributions to CSF-ICE
   Dipayan Datta          : RHF DLPNO-CCSD density
   Achintya Kumar Dutta   : EOM-CC, STEOM-CC
   Dmitry Ganyushin       : Spin-Orbit,Spin-Spin,Magnetic field MRCI
   Miquel Garcia          : C-PCM Hessian, Gaussian charge scheme
   Yang Guo               : DLPNO-NEVPT2, CIM, IAO-localization
   Andreas Hansen         : Spin unrestricted coupled pair/coupled cluster methods
   Benjamin Helmich-Paris : CASSCF linear response (MC-RPA)
   Lee Huntington         : MR-EOM, pCC
   Robert Izsak           : Overlap fitted RIJCOSX, COSX-SCS-MP3, EOM
   Christian Kollmar      : KDIIS, OOCD, Brueckner-CCSD(T), CCSD density
   Simone Kossmann        : Meta GGA functionals, TD-DFT gradient, OOMP2, MP2 Hessian
   Martin Krupicka        : AUTO-CI
   Lucas Lang             : DCDCAS
   Dagmar Lenk            : GEPOL surface, SMD
   Dimitrios Liakos       : Extrapolation schemes; Compound Job, initial MDCI parallelization
   Dimitrios Manganas     : Further ROCIS development; embedding schemes
   Dimitrios Pantazis     : SARC Basis sets
   Taras Petrenko         : DFT Hessian,TD-DFT gradient, ASA, ECA, R-Raman, ABS, FL, XAS/XES, NRVS
   Peter Pinski           : DLPNO-MP2, DLPNO-MP2 Gradient
   Christoph Reimann      : Effective Core Potentials
   Marius Retegan         : Local ZFS, SOC
   Christoph Riplinger    : Optimizer, TS searches, QM/MM, DLPNO-CCSD(T), (RO)-DLPNO pert. Triples
   Tobias Risthaus        : Range-separated hybrids, TD-DFT gradient, RPA, STAB
   Michael Roemelt        : Original ROCIS implementation
   Masaaki Saitow         : Open-shell DLPNO-CCSD energy and density
   Barbara Sandhoefer     : DKH picture change effects
   Avijit Sen             : IP-ROCIS
   Kantharuban Sivalingam : CASSCF convergence, NEVPT2, FIC-MRCI
   Bernardo de Souza      : ESD, SOC TD-DFT
   Georgi Stoychev        : AutoAux, RI-MP2 NMR
   Willem Van den Heuvel  : Paramagnetic NMR
   Boris Wezisla          : Elementary symmetry handling
   Frank Wennmohs         : Technical directorship


 We gratefully acknowledge several colleagues who have allowed us to
 interface, adapt or use parts of their codes:
   Stefan Grimme, W. Hujo, H. Kruse,             : VdW corrections, initial TS optimization,
                  C. Bannwarth                     DFT functionals, gCP, sTDA/sTD-DF
   Ed Valeev, F. Pavosevic, A. Kumar             : LibInt (2-el integral package), F12 methods
   Garnet Chan, S. Sharma, J. Yang, R. Olivares  : DMRG
   Ulf Ekstrom                                   : XCFun DFT Library
   Mihaly Kallay                                 : mrcc  (arbitrary order and MRCC methods)
   Andreas Klamt, Michael Diedenhofen            : otool_cosmo (COSMO solvation model)
   Jiri Pittner, Ondrej Demel                    : Mk-CCSD
   Frank Weinhold                                : gennbo (NPA and NBO analysis)
   Christopher J. Cramer and Donald G. Truhlar   : smd solvation model
   Lars Goerigk                                  : TD-DFT with DH, B97 family of functionals
   V. Asgeirsson, H. Jonsson                     : NEB implementation
   FAccTs GmbH                                   : IRC, NEB, NEB-TS, Multilevel, MM, QM/MM, CI optimization
   S Lehtola, MJT Oliveira, MAL Marques          : LibXC Library


 Your calculation uses the libint2 library for the computation of 2-el integrals
 For citations please refer to: http://libint.valeyev.net

 Your ORCA version has been built with support for libXC version: 4.2.3
 For citations please refer to: https://tddft.org/programs/libxc/

 This ORCA versions uses:
   CBLAS   interface :  Fast vector & matrix operations
   LAPACKE interface :  Fast linear algebra routines
   SCALAPACK package :  Parallel linear algebra routines


[file orca_tools/Tool-Scanner/qcscan1.cpp, line 102]: 
	 Unknown identifier in CPCM block line    7  : 
	 Last token : Â
[file orca_tools/Tool-Scanner/qcscan1.cpp, line 102]: 
	 Unknown identifier in CPCM block line    7  : 
	 Last token : Â
Warning: no access to tty (Bad file descriptor).
Thus no job control in this shell.

                                 *****************
                                 * O   R   C   A *
                                 *****************

           --- An Ab Initio, DFT and Semiempirical electronic structure package ---

                  #######################################################
                  #                        -***-                        #
                  #          Department of theory and spectroscopy      #
                  #               Directorship: Frank Neese             #
                  #        Max Planck Institute fuer Kohlenforschung    #
                  #                Kaiser Wilhelm Platz 1               #
                  #                 D-45470 Muelheim/Ruhr               #
                  #                      Germany                        #
                  #                                                     #
                  #                  All rights reserved                #
                  #                        -***-                        #
                  #######################################################


                         Program Version 4.2.1 -  RELEASE  -


 With contributions from (in alphabetic order):
   Daniel Aravena         : Magnetic Suceptibility
   Michael Atanasov       : Ab Initio Ligand Field Theory (pilot matlab implementation)
   Alexander A. Auer      : GIAO ZORA, VPT2
   Ute Becker             : Parallelization
   Giovanni Bistoni       : ED, misc. LED, open-shell LED, HFLD
   Martin Brehm           : Molecular dynamics
   Dmytro Bykov           : SCF Hessian
   Vijay G. Chilkuri      : MRCI spin determinant printing, contributions to CSF-ICE
   Dipayan Datta          : RHF DLPNO-CCSD density
   Achintya Kumar Dutta   : EOM-CC, STEOM-CC
   Dmitry Ganyushin       : Spin-Orbit,Spin-Spin,Magnetic field MRCI
   Miquel Garcia          : C-PCM Hessian, Gaussian charge scheme
   Yang Guo               : DLPNO-NEVPT2, CIM, IAO-localization
   Andreas Hansen         : Spin unrestricted coupled pair/coupled cluster methods
   Benjamin Helmich-Paris : CASSCF linear response (MC-RPA)
   Lee Huntington         : MR-EOM, pCC
   Robert Izsak           : Overlap fitted RIJCOSX, COSX-SCS-MP3, EOM
   Christian Kollmar      : KDIIS, OOCD, Brueckner-CCSD(T), CCSD density
   Simone Kossmann        : Meta GGA functionals, TD-DFT gradient, OOMP2, MP2 Hessian
   Martin Krupicka        : AUTO-CI
   Lucas Lang             : DCDCAS
   Dagmar Lenk            : GEPOL surface, SMD
   Dimitrios Liakos       : Extrapolation schemes; Compound Job, initial MDCI parallelization
   Dimitrios Manganas     : Further ROCIS development; embedding schemes
   Dimitrios Pantazis     : SARC Basis sets
   Taras Petrenko         : DFT Hessian,TD-DFT gradient, ASA, ECA, R-Raman, ABS, FL, XAS/XES, NRVS
   Peter Pinski           : DLPNO-MP2, DLPNO-MP2 Gradient
   Christoph Reimann      : Effective Core Potentials
   Marius Retegan         : Local ZFS, SOC
   Christoph Riplinger    : Optimizer, TS searches, QM/MM, DLPNO-CCSD(T), (RO)-DLPNO pert. Triples
   Tobias Risthaus        : Range-separated hybrids, TD-DFT gradient, RPA, STAB
   Michael Roemelt        : Original ROCIS implementation
   Masaaki Saitow         : Open-shell DLPNO-CCSD energy and density
   Barbara Sandhoefer     : DKH picture change effects
   Avijit Sen             : IP-ROCIS
   Kantharuban Sivalingam : CASSCF convergence, NEVPT2, FIC-MRCI
   Bernardo de Souza      : ESD, SOC TD-DFT
   Georgi Stoychev        : AutoAux, RI-MP2 NMR
   Willem Van den Heuvel  : Paramagnetic NMR
   Boris Wezisla          : Elementary symmetry handling
   Frank Wennmohs         : Technical directorship


 We gratefully acknowledge several colleagues who have allowed us to
 interface, adapt or use parts of their codes:
   Stefan Grimme, W. Hujo, H. Kruse,             : VdW corrections, initial TS optimization,
                  C. Bannwarth                     DFT functionals, gCP, sTDA/sTD-DF
   Ed Valeev, F. Pavosevic, A. Kumar             : LibInt (2-el integral package), F12 methods
   Garnet Chan, S. Sharma, J. Yang, R. Olivares  : DMRG
   Ulf Ekstrom                                   : XCFun DFT Library
   Mihaly Kallay                                 : mrcc  (arbitrary order and MRCC methods)
   Andreas Klamt, Michael Diedenhofen            : otool_cosmo (COSMO solvation model)
   Jiri Pittner, Ondrej Demel                    : Mk-CCSD
   Frank Weinhold                                : gennbo (NPA and NBO analysis)
   Christopher J. Cramer and Donald G. Truhlar   : smd solvation model
   Lars Goerigk                                  : TD-DFT with DH, B97 family of functionals
   V. Asgeirsson, H. Jonsson                     : NEB implementation
   FAccTs GmbH                                   : IRC, NEB, NEB-TS, Multilevel, MM, QM/MM, CI optimization
   S Lehtola, MJT Oliveira, MAL Marques          : LibXC Library


 Your calculation uses the libint2 library for the computation of 2-el integrals
 For citations please refer to: http://libint.valeyev.net

 Your ORCA version has been built with support for libXC version: 4.2.3
 For citations please refer to: https://tddft.org/programs/libxc/

 This ORCA versions uses:
   CBLAS   interface :  Fast vector & matrix operations
   LAPACKE interface :  Fast linear algebra routines
   SCALAPACK package :  Parallel linear algebra routines


Your calculation utilizes the atom-pairwise dispersion correction
with the zero-damping scheme (D30)
Cite in your paper:
S.Grimme, J.Antony, S.Ehrlich and H.Krieg, J.Chem.Phys., 132, (2010), 154104 
   

XCFun DFT library Copyright 2009-2010 Ulf Ekstrom and contributors.
See http://admol.org/xcfun for more information. This is free soft-
ware; see the source code for copying conditions. There is ABSOLUTELY
NO WARRANTY; not even for MERCHANTABILITY or FITNESS FOR A PARTICULAR
PURPOSE. For details see the documentation. Scientific users of this 
library should cite U. Ekstrom, L. Visscher, R. Bast, A. J. Thorvald-
sen and K. Ruud; J.Chem.Theor.Comp. 2010, DOI: 10.1021/ct100117s
XCFun Version 0.99 
----- Orbital basis set information -----
Your calculation utilizes the basis: def2-TZVP
   F. Weigend and R. Ahlrichs, Phys. Chem. Chem. Phys. 7, 3297 (2005).

----- AuxJ basis set information -----
Your calculation utilizes the auxiliary basis: def2/J
   F. Weigend, Phys. Chem. Chem. Phys. 8, 1057 (2006).

================================================================================
                                        WARNINGS
                       Please study these warnings very carefully!
================================================================================


WARNING: Geometry Optimization
  ===> : Switching off AutoStart
         For restart on a previous wavefunction, please use MOREAD

INFO   : the flag for use of LIBINT has been found!

================================================================================
                                       INPUT FILE
================================================================================
NAME = AQ.inp
|  1> # avogadro generated ORCA input file 
|  2> # Basic Mode
|  3> # 
|  4> ! wB97X-D3 OPT def2-TZVP def2/J CPCM
|  5> %cpcm
|  6>   epsilon 3
|  7> end
|  8> %pal
|  9>  nprocs 4
| 10> end
| 11> 
| 12> 
| 13> * xyz -8 1
| 14>   Na       -1.57138        0.17233       -1.21484
| 15>    O        1.11940       -0.03409        0.16956
| 16>    C        2.34182       -0.06075        0.13613
| 17>    C        3.11077        1.20992        0.12786
| 18>    C        2.44630        2.45033        0.15743
| 19>    C        3.17305        3.64261        0.14960
| 20>    C        4.56695        3.61220        0.11233
| 21>    C        5.24043        2.38936        0.08266
| 22>    C        4.52194        1.17909        0.09005
| 23>    C        5.23418       -0.12397        0.05852
| 24>    O        6.45668       -0.15046        0.02589
| 25>    C        4.46496       -1.39487        0.06640
| 26>    C        5.12972       -2.63499        0.03647
| 27>    C        4.40357       -3.82989        0.04394
| 28>    S        5.26112       -5.40275        0.00553
| 29>    O        4.85580       -6.30575        1.17993
| 30>    O        4.84666       -6.25324       -1.20430
| 31>    O        6.97773       -5.41227       -0.00045
| 32>    C        3.00774       -3.79640        0.08121
| 33>    C        2.33566       -2.57327        0.11120
| 34>    C        3.05418       -1.36375        0.10419
| 35>    H        1.36495        2.49943        0.18658
| 36>    H        2.65409        4.59223        0.17250
| 37>    H        5.12729        4.53826        0.10638
| 38>    H        6.32288        2.39130        0.05395
| 39>    H        6.21144       -2.67604        0.00733
| 40>    H        2.44057       -4.71864        0.08702
| 41>    H        1.25319       -2.57458        0.13985
| 42> *
| 43> 
| 44> 
| 45>                          ****END OF INPUT****
================================================================================

                       *****************************
                       * Geometry Optimization Run *
                       *****************************

Geometry optimization settings:
Update method            Update   .... BFGS
Choice of coordinates    CoordSys .... Z-matrix Internals
Initial Hessian          InHess   .... Almoef's Model

Convergence Tolerances:
Energy Change            TolE     ....  5.0000e-06 Eh
Max. Gradient            TolMAXG  ....  3.0000e-04 Eh/bohr
RMS Gradient             TolRMSG  ....  1.0000e-04 Eh/bohr
Max. Displacement        TolMAXD  ....  4.0000e-03 bohr
RMS Displacement         TolRMSD  ....  2.0000e-03 bohr
Strict Convergence                ....  False
------------------------------------------------------------------------------
                        ORCA OPTIMIZATION COORDINATE SETUP
------------------------------------------------------------------------------

The optimization will be done in new redundant internal coordinates
Making redundant internal coordinates   ...  (new redundants) done
Evaluating the initial hessian          ...  (Almloef) done
Evaluating the coordinates              ...  done
Calculating the B-matrix                .... done
Calculating the G-matrix                .... done
Diagonalizing the G-matrix              .... done
Small eigenvalue found = 1.516e-02
Small eigenvalue found = 2.639e-02
The first mode is                       ....   73
The number of degrees of freedom        ....   78

    -----------------------------------------------------------------
                    Redundant Internal Coordinates


    -----------------------------------------------------------------
         Definition                    Initial Value    Approx d2E/dq
    -----------------------------------------------------------------
      1. B(O   1,Na  0)                  3.0331         0.019550   
      2. B(C   2,O   1)                  1.2232         1.032871   
      3. B(C   3,C   2)                  1.4852         0.440332   
      4. B(C   4,C   3)                  1.4075         0.585927   
      5. B(C   5,C   4)                  1.3963         0.610418   
      6. B(C   6,C   5)                  1.3947         0.614034   
      7. B(C   7,C   6)                  1.3963         0.610390   
      8. B(C   8,C   7)                  1.4075         0.585909   
      9. B(C   8,C   3)                  1.4120         0.576260   
     10. B(C   9,C   8)                  1.4853         0.440174   
     11. B(O  10,C   9)                  1.2232         1.032663   
     12. B(C  11,C   9)                  1.4856         0.439791   
     13. B(C  12,C  11)                  1.4074         0.586166   
     14. B(C  13,C  12)                  1.3983         0.606119   
     15. B(S  14,C  13)                  1.7919         0.384917   
     16. B(O  15,S  14)                  1.5359         0.882898   
     17. B(O  16,S  14)                  1.5358         0.883014   
     18. B(O  17,S  14)                  1.7166         0.454464   
     19. B(C  18,C  13)                  1.3967         0.609541   
     20. B(C  19,C  18)                  1.3959         0.611319   
     21. B(C  20,C  19)                  1.4069         0.587269   
     22. B(C  20,C  11)                  1.4116         0.577073   
     23. B(C  20,C   2)                  1.4854         0.440152   
     24. B(H  21,C   4)                  1.0829         0.369675   
     25. B(H  22,C   5)                  1.0824         0.370275   
     26. B(H  23,C   6)                  1.0824         0.370287   
     27. B(H  24,C   7)                  1.0828         0.369708   
     28. B(H  25,C  12)                  1.0829         0.369629   
     29. B(H  26,C  18)                  1.0827         0.369886   
     30. B(H  27,C  19)                  1.0828         0.369684   
     31. A(Na  0,O   1,C   2)          151.1179         0.294607   
     32. A(O   1,C   2,C  20)          119.9341         0.444472   
     33. A(C   3,C   2,C  20)          120.1377         0.384522   
     34. A(O   1,C   2,C   3)          119.9282         0.444505   
     35. A(C   2,C   3,C   8)          119.9263         0.403105   
     36. A(C   2,C   3,C   4)          120.6265         0.404290   
     37. A(C   4,C   3,C   8)          119.4472         0.424085   
     38. A(C   3,C   4,C   5)          120.4426         0.428481   
     39. A(C   3,C   4,H  21)          120.7949         0.351106   
     40. A(C   5,C   4,H  21)          118.7624         0.353547   
     41. A(C   6,C   5,H  22)          119.9243         0.353998   
     42. A(C   4,C   5,H  22)          119.9637         0.353644   
     43. A(C   4,C   5,C   6)          120.1120         0.432100   
     44. A(C   5,C   6,C   7)          120.1119         0.432096   
     45. A(C   7,C   6,H  23)          119.9632         0.353643   
     46. A(C   5,C   6,H  23)          119.9249         0.354000   
     47. A(C   8,C   7,H  24)          120.7954         0.351110   
     48. A(C   6,C   7,C   8)          120.4448         0.428475   
     49. A(C   6,C   7,H  24)          118.7598         0.353549   
     50. A(C   3,C   8,C   9)          119.9305         0.403079   
     51. A(C   3,C   8,C   7)          119.4416         0.424082   
     52. A(C   7,C   8,C   9)          120.6279         0.404262   
     53. A(O  10,C   9,C  11)          119.9405         0.444390   
     54. A(C   8,C   9,C  11)          120.1393         0.384443   
     55. A(C   8,C   9,O  10)          119.9202         0.444460   
     56. A(C   9,C  11,C  12)          120.6064         0.404231   
     57. A(C  12,C  11,C  20)          119.4755         0.424223   
     58. A(C   9,C  11,C  20)          119.9181         0.403118   
     59. A(C  13,C  12,H  25)          119.1115         0.353116   
     60. A(C  11,C  12,H  25)          120.3848         0.351123   
     61. A(C  11,C  12,C  13)          120.5036         0.427969   
     62. A(S  14,C  13,C  18)          119.9929         0.419247   
     63. A(C  12,C  13,C  18)          119.9102         0.430983   
     64. A(C  12,C  13,S  14)          120.0970         0.418826   
     65. A(O  16,S  14,O  17)          105.3098         0.482520   
     66. A(O  15,S  14,O  17)          105.2659         0.482508   
     67. A(C  13,S  14,O  17)          118.9151         0.417396   
     68. A(O  15,S  14,O  16)          101.8612         0.546346   
     69. A(C  13,S  14,O  16)          111.9513         0.470671   
     70. A(C  13,S  14,O  15)          111.9250         0.470659   
     71. A(C  13,C  18,C  19)          120.1806         0.431644   
     72. A(C  19,C  18,H  26)          119.6055         0.353669   
     73. A(C  13,C  18,H  26)          120.2139         0.353495   
     74. A(C  20,C  19,H  27)          120.7784         0.351244   
     75. A(C  18,C  19,H  27)          118.7373         0.353637   
     76. A(C  18,C  19,C  20)          120.4844         0.428770   
     77. A(C   2,C  20,C  11)          119.9480         0.403176   
     78. A(C  11,C  20,C  19)          119.4457         0.424365   
     79. A(C   2,C  20,C  19)          120.6063         0.404424   
     80. D(C   3,C   2,O   1,Na  0)     84.7472         0.088275   
     81. D(C  20,C   2,O   1,Na  0)    -95.2662         0.088275   
     82. D(C   8,C   3,C   2,C  20)     -0.0232         0.013229   
     83. D(C   4,C   3,C   2,C  20)    179.9779         0.013229   
     84. D(C   8,C   3,C   2,O   1)    179.9634         0.013229   
     85. D(C   4,C   3,C   2,O   1)     -0.0355         0.013229   
     86. D(C   5,C   4,C   3,C   2)    179.9967         0.023610   
     87. D(H  21,C   4,C   3,C   8)    179.9958         0.023610   
     88. D(H  21,C   4,C   3,C   2)     -0.0053         0.023610   
     89. D(C   5,C   4,C   3,C   8)     -0.0022         0.023610   
     90. D(H  22,C   5,C   4,C   3)    179.9994         0.025736   
     91. D(C   6,C   5,C   4,H  21)   -179.9995         0.025736   
     92. D(H  22,C   5,C   4,H  21)      0.0013         0.025736   
     93. D(C   6,C   5,C   4,C   3)     -0.0015         0.025736   
     94. D(H  23,C   6,C   5,H  22)      0.0005         0.026060   
     95. D(H  23,C   6,C   5,C   4)   -179.9987         0.026060   
     96. D(C   7,C   6,C   5,H  22)   -179.9980         0.026060   
     97. D(C   7,C   6,C   5,C   4)      0.0029         0.026060   
     98. D(H  24,C   7,C   6,H  23)      0.0007         0.025734   
     99. D(H  24,C   7,C   6,C   5)    179.9991         0.025734   
    100. D(C   8,C   7,C   6,H  23)   -179.9991         0.025734   
    101. D(C   8,C   7,C   6,C   5)     -0.0006         0.025734   
    102. D(C   9,C   8,C   7,H  24)     -0.0023         0.023608   
    103. D(C   9,C   8,C   7,C   6)    179.9974         0.023608   
    104. D(C   3,C   8,C   7,H  24)    179.9972         0.023608   
    105. D(C   3,C   8,C   7,C   6)     -0.0030         0.023608   
    106. D(C   9,C   8,C   3,C   4)   -179.9961         0.022801   
    107. D(C   9,C   8,C   3,C   2)      0.0051         0.022801   
    108. D(C   7,C   8,C   3,C   4)      0.0044         0.022801   
    109. D(C   7,C   8,C   3,C   2)   -179.9945         0.022801   
    110. D(O  10,C   9,C   8,C   3)   -179.9934         0.013220   
    111. D(C  11,C   9,C   8,C   7)   -179.9879         0.013220   
    112. D(C  11,C   9,C   8,C   3)      0.0125         0.013220   
    113. D(O  10,C   9,C   8,C   7)      0.0062         0.013220   
    114. D(C  20,C  11,C   9,O  10)    179.9940         0.013198   
    115. D(C  20,C  11,C   9,C   8)     -0.0120         0.013198   
    116. D(C  12,C  11,C   9,O  10)     -0.0068         0.013198   
    117. D(C  12,C  11,C   9,C   8)    179.9873         0.013198   
    118. D(H  25,C  12,C  11,C  20)   -179.9997         0.023630   
    119. D(H  25,C  12,C  11,C   9)      0.0011         0.023630   
    120. D(C  13,C  12,C  11,C  20)      0.0001         0.023630   
    121. D(C  13,C  12,C  11,C   9)   -179.9992         0.023630   
    122. D(C  18,C  13,C  12,H  25)   -179.9934         0.025355   
    123. D(C  18,C  13,C  12,C  11)      0.0068         0.025355   
    124. D(S  14,C  13,C  12,H  25)     -0.0027         0.025355   
    125. D(S  14,C  13,C  12,C  11)    179.9976         0.025355   
    126. D(O  17,S  14,C  13,C  18)   -178.4928         0.004101   
    127. D(O  17,S  14,C  13,C  12)      1.5165         0.004101   
    128. D(O  16,S  14,C  13,C  18)     58.2877         0.004101   
    129. D(O  16,S  14,C  13,C  12)   -121.7030         0.004101   
    130. D(O  15,S  14,C  13,C  18)    -55.3599         0.004101   
    131. D(O  15,S  14,C  13,C  12)    124.6494         0.004101   
    132. D(H  26,C  18,C  13,S  14)      0.0011         0.025658   
    133. D(H  26,C  18,C  13,C  12)    179.9918         0.025658   
    134. D(C  19,C  18,C  13,S  14)   -179.9992         0.025658   
    135. D(C  19,C  18,C  13,C  12)     -0.0085         0.025658   
    136. D(H  27,C  19,C  18,H  26)      0.0009         0.025817   
    137. D(H  27,C  19,C  18,C  13)   -179.9988         0.025817   
    138. D(C  20,C  19,C  18,H  26)   -179.9971         0.025817   
    139. D(C  20,C  19,C  18,C  13)      0.0032         0.025817   
    140. D(C  19,C  20,C   2,O   1)      0.0371         0.013219   
    141. D(C  11,C  20,C   2,C   3)      0.0238         0.013219   
    142. D(C  11,C  20,C   2,O   1)   -179.9628         0.013219   
    143. D(C  11,C  20,C  19,H  27)   -179.9942         0.023723   
    144. D(C   2,C  20,C  19,H  27)      0.0059         0.023723   
    145. D(C   2,C  20,C  19,C  18)   -179.9961         0.023723   
    146. D(C  19,C  20,C  11,C  12)     -0.0053         0.022869   
    147. D(C  19,C  20,C  11,C   9)    179.9939         0.022869   
    148. D(C   2,C  20,C  11,C  12)    179.9945         0.022869   
    149. D(C  11,C  20,C  19,C  18)      0.0038         0.023723   
    150. D(C   2,C  20,C  11,C   9)     -0.0062         0.022869   
    151. D(C  19,C  20,C   2,C   3)   -179.9763         0.013219   
    -----------------------------------------------------------------

Number of atoms                         .... 28
Number of degrees of freedom            .... 151

         *************************************************************
         *                GEOMETRY OPTIMIZATION CYCLE   1            *
         *************************************************************
---------------------------------
CARTESIAN COORDINATES (ANGSTROEM)
---------------------------------
  Na    -1.571380    0.172330   -1.214840
  O      1.119400   -0.034090    0.169560
  C      2.341820   -0.060750    0.136130
  C      3.110770    1.209920    0.127860
  C      2.446300    2.450330    0.157430
  C      3.173050    3.642610    0.149600
  C      4.566950    3.612200    0.112330
  C      5.240430    2.389360    0.082660
  C      4.521940    1.179090    0.090050
  C      5.234180   -0.123970    0.058520
  O      6.456680   -0.150460    0.025890
  C      4.464960   -1.394870    0.066400
  C      5.129720   -2.634990    0.036470
  C      4.403570   -3.829890    0.043940
  S      5.261120   -5.402750    0.005530
  O      4.855800   -6.305750    1.179930
  O      4.846660   -6.253240   -1.204300
  O      6.977730   -5.412270   -0.000450
  C      3.007740   -3.796400    0.081210
  C      2.335660   -2.573270    0.111200
  C      3.054180   -1.363750    0.104190
  H      1.364950    2.499430    0.186580
  H      2.654090    4.592230    0.172500
  H      5.127290    4.538260    0.106380
  H      6.322880    2.391300    0.053950
  H      6.211440   -2.676040    0.007330
  H      2.440570   -4.718640    0.087020
  H      1.253190   -2.574580    0.139850

----------------------------
CARTESIAN COORDINATES (A.U.)
----------------------------
  NO LB      ZA    FRAG     MASS         X           Y           Z
   0 Na   11.0000    0    22.990   -2.969478    0.325657   -2.295715
   1 O     8.0000    0    15.999    2.115359   -0.064421    0.320422
   2 C     6.0000    0    12.011    4.425398   -0.114801    0.257248
   3 C     6.0000    0    12.011    5.878503    2.286417    0.241620
   4 C     6.0000    0    12.011    4.622837    4.630453    0.297500
   5 C     6.0000    0    12.011    5.996196    6.883535    0.282703
   6 C     6.0000    0    12.011    8.630285    6.826069    0.212273
   7 C     6.0000    0    12.011    9.902978    4.515236    0.156205
   8 C     6.0000    0    12.011    8.545228    2.228157    0.170170
   9 C     6.0000    0    12.011    9.891167   -0.234269    0.110587
  10 O     8.0000    0    15.999   12.201357   -0.284328    0.048925
  11 C     6.0000    0    12.011    8.437552   -2.635922    0.125478
  12 C     6.0000    0    12.011    9.693766   -4.979409    0.068918
  13 C     6.0000    0    12.011    8.321541   -7.237443    0.083035
  14 S    16.0000    0    32.060    9.942076  -10.209718    0.010450
  15 O     8.0000    0    15.999    9.176132  -11.916141    2.229745
  16 O     8.0000    0    15.999    9.158860  -11.816911   -2.275797
  17 O     8.0000    0    15.999   13.185999  -10.227708   -0.000850
  18 C     6.0000    0    12.011    5.683805   -7.174156    0.153465
  19 C     6.0000    0    12.011    4.413758   -4.862776    0.210138
  20 C     6.0000    0    12.011    5.771564   -2.577114    0.196891
  21 H     1.0000    0     1.008    2.579382    4.723238    0.352585
  22 H     1.0000    0     1.008    5.015503    8.678057    0.325978
  23 H     1.0000    0     1.008    9.689174    8.576069    0.201029
  24 H     1.0000    0     1.008   11.948512    4.518902    0.101951
  25 H     1.0000    0     1.008   11.737920   -5.056983    0.013852
  26 H     1.0000    0     1.008    4.612009   -8.916937    0.164444
  27 H     1.0000    0     1.008    2.368186   -4.865251    0.264278

--------------------------------
INTERNAL COORDINATES (ANGSTROEM)
--------------------------------
 Na     0   0   0     0.000000000000     0.00000000     0.00000000
 O      1   0   0     3.033062740004     0.00000000     0.00000000
 C      2   1   0     1.223167599677   151.11794914     0.00000000
 C      3   2   1     1.485245684828   119.92821334    84.74715880
 C      4   3   2     1.407484186021   120.62650940   359.96450584
 C      5   4   3     1.396337520014   120.44263660   179.99671052
 C      6   5   4     1.394729734035   120.11198784     0.00000000
 C      7   6   5     1.396349986536   120.11185180     0.00000000
 C      8   7   6     1.407492793978   120.44475852     0.00000000
 C      9   8   7     1.485343503066   120.62792432   179.99742477
 O     10   9   8     1.223222255765   119.92020208     0.00000000
 C     10   9   8     1.485580126685   120.13930254   180.01211844
 C     12  10   9     1.407373183239   120.60635744   179.98732507
 C     13  12  10     1.398261646975   120.50364281   180.00079098
 S     14  13  12     1.791858228265   120.09696317   179.99755693
 O     15  14  13     1.535873908366   111.92499538   124.64936095
 O     15  14  13     1.535838194798   111.95132966   238.29697556
 O     15  14  13     1.716646813675   118.91514036     1.51647384
 C     14  13  12     1.396729043838   119.91016212     0.00000000
 C     19  14  13     1.395936217526   120.18059828     0.00000000
 C     20  19  14     1.406861315447   120.48436507     0.00000000
 H      5   4   3     1.082856571758   120.79494116     0.00000000
 H      6   5   4     1.082414909358   119.96372619   179.99936796
 H      7   6   5     1.082406320057   119.92491668   180.00133891
 H      8   7   6     1.082832410948   118.75979711   179.99914209
 H     13  12  10     1.082890761111   120.38482915     0.00000000
 H     19  14  13     1.082701335826   120.21387726   179.99184454
 H     20  19  14     1.082849869326   118.73728351   180.00116166

---------------------------
INTERNAL COORDINATES (A.U.)
---------------------------
 Na     0   0   0     0.000000000000     0.00000000     0.00000000
 O      1   0   0     5.731657925608     0.00000000     0.00000000
 C      2   1   0     2.311451779276   151.11794914     0.00000000
 C      3   2   1     2.806707585913   119.92821334    84.74715880
 C      4   3   2     2.659759649405   120.62650940   359.96450584
 C      5   4   3     2.638695503346   120.44263660   179.99671052
 C      6   5   4     2.635657228162   120.11198784     0.00000000
 C      7   6   5     2.638719061658   120.11185180     0.00000000
 C      8   7   6     2.659775916086   120.44475852     0.00000000
 C      9   8   7     2.806892435594   120.62792432   179.99742477
 O     10   9   8     2.311555064314   119.92020208     0.00000000
 C     10   9   8     2.807339589430   120.13930254   180.01211844
 C     12  10   9     2.659549884546   120.60635744   179.98732507
 C     13  12  10     2.642331576348   120.50364281   180.00079098
 S     14  13  12     3.386121322234   120.09696317   179.99755693
 O     15  14  13     2.902381063047   111.92499538   124.64936095
 O     15  14  13     2.902313574184   111.95132966   238.29697556
 O     15  14  13     3.243992346514   118.91514036     1.51647384
 C     14  13  12     2.639435376147   119.91016212     0.00000000
 C     19  14  13     2.637937151546   120.18059828     0.00000000
 C     20  19  14     2.658582594602   120.48436507     0.00000000
 H      5   4   3     2.046302362940   120.79494116     0.00000000
 H      6   5   4     2.045467741959   119.96372619   179.99936796
 H      7   6   5     2.045451510534   119.92491668   180.00133891
 H      8   7   6     2.046256705626   118.75979711   179.99914209
 H     13  12  10     2.046366971454   120.38482915     0.00000000
 H     19  14  13     2.046009009542   120.21387726   179.99184454
 H     20  19  14     2.046289697179   118.73728351   180.00116166

---------------------
BASIS SET INFORMATION
---------------------
There are 5 groups of distinct atoms

 Group   1 Type Na  : 14s8p3d contracted to 5s4p3d pattern {73211/5111/111}
 Group   2 Type O   : 11s6p2d1f contracted to 5s3p2d1f pattern {62111/411/11/1}
 Group   3 Type C   : 11s6p2d1f contracted to 5s3p2d1f pattern {62111/411/11/1}
 Group   4 Type S   : 14s9p3d1f contracted to 5s5p2d1f pattern {73211/51111/21/1}
 Group   5 Type H   : 5s1p contracted to 3s1p pattern {311/1}

Atom   0Na   basis set group =>   1
Atom   1O    basis set group =>   2
Atom   2C    basis set group =>   3
Atom   3C    basis set group =>   3
Atom   4C    basis set group =>   3
Atom   5C    basis set group =>   3
Atom   6C    basis set group =>   3
Atom   7C    basis set group =>   3
Atom   8C    basis set group =>   3
Atom   9C    basis set group =>   3
Atom  10O    basis set group =>   2
Atom  11C    basis set group =>   3
Atom  12C    basis set group =>   3
Atom  13C    basis set group =>   3
Atom  14S    basis set group =>   4
Atom  15O    basis set group =>   2
Atom  16O    basis set group =>   2
Atom  17O    basis set group =>   2
Atom  18C    basis set group =>   3
Atom  19C    basis set group =>   3
Atom  20C    basis set group =>   3
Atom  21H    basis set group =>   5
Atom  22H    basis set group =>   5
Atom  23H    basis set group =>   5
Atom  24H    basis set group =>   5
Atom  25H    basis set group =>   5
Atom  26H    basis set group =>   5
Atom  27H    basis set group =>   5
---------------------------------
AUXILIARY/J BASIS SET INFORMATION
---------------------------------
There are 5 groups of distinct atoms

 Group   1 Type Na  : 14s5p5d2f1g contracted to 8s4p4d1f1g pattern {71111111/2111/2111/2/1}
 Group   2 Type O   : 12s5p4d2f1g contracted to 6s4p3d1f1g pattern {711111/2111/211/2/1}
 Group   3 Type C   : 12s5p4d2f1g contracted to 6s4p3d1f1g pattern {711111/2111/211/2/1}
 Group   4 Type S   : 14s5p5d2f1g contracted to 8s4p3d1f1g pattern {71111111/2111/311/2/1}
 Group   5 Type H   : 5s2p1d contracted to 3s1p1d pattern {311/2/1}

Atom   0Na   basis set group =>   1
Atom   1O    basis set group =>   2
Atom   2C    basis set group =>   3
Atom   3C    basis set group =>   3
Atom   4C    basis set group =>   3
Atom   5C    basis set group =>   3
Atom   6C    basis set group =>   3
Atom   7C    basis set group =>   3
Atom   8C    basis set group =>   3
Atom   9C    basis set group =>   3
Atom  10O    basis set group =>   2
Atom  11C    basis set group =>   3
Atom  12C    basis set group =>   3
Atom  13C    basis set group =>   3
Atom  14S    basis set group =>   4
Atom  15O    basis set group =>   2
Atom  16O    basis set group =>   2
Atom  17O    basis set group =>   2
Atom  18C    basis set group =>   3
Atom  19C    basis set group =>   3
Atom  20C    basis set group =>   3
Atom  21H    basis set group =>   5
Atom  22H    basis set group =>   5
Atom  23H    basis set group =>   5
Atom  24H    basis set group =>   5
Atom  25H    basis set group =>   5
Atom  26H    basis set group =>   5
Atom  27H    basis set group =>   5
--------------------------------------------------------------------------
[[50624,1],1]: A high-performance Open MPI point-to-point messaging module
was unable to find any relevant network interfaces:

Module: OpenFabrics (openib)
  Host: compute-1-7

Another transport will be used instead, although this may result in
lower performance.

NOTE: You can disable this warning by setting the MCA parameter
btl_base_warn_component_unused to 0.
--------------------------------------------------------------------------


           ************************************************************
           *        Program running with 4 parallel MPI-processes     *
           *              working on a common directory               *
           ************************************************************
------------------------------------------------------------------------------
                           ORCA GTO INTEGRAL CALCULATION
------------------------------------------------------------------------------

                         BASIS SET STATISTICS AND STARTUP INFO

 # of primitive gaussian shells          ...  474
 # of primitive gaussian functions       ... 1046
 # of contracted shells                  ...  262
 # of contracted basis functions         ...  700
 Highest angular momentum                ...    3
 Maximum contraction depth               ...    7
 Integral package used                   ... LIBINT
 Integral threshhold            Thresh   ...  2.500e-11
 Primitive cut-off              TCut     ...  2.500e-12


------------------------------ INTEGRAL EVALUATION ----------------------------


 * One electron integrals 
 Pre-screening matrix                    ... done
 Shell pair data                         ... done (   0.012 sec)

[compute-1-7.local:50104] 3 more processes have sent help message help-mpi-btl-base.txt / btl:no-nics
[compute-1-7.local:50104] Set MCA parameter "orte_base_help_aggregate" to 0 to see all help / error messages
--------------------------------------------------------------------------
[[50613,1],3]: A high-performance Open MPI point-to-point messaging module
was unable to find any relevant network interfaces:

Module: OpenFabrics (openib)
  Host: compute-1-7

Another transport will be used instead, although this may result in
lower performance.

NOTE: You can disable this warning by setting the MCA parameter
btl_base_warn_component_unused to 0.
--------------------------------------------------------------------------


           ************************************************************
           *        Program running with 4 parallel MPI-processes     *
           *              working on a common directory               *
           ************************************************************
-------------------------------------------------------------------------------
                                 ORCA SCF
-------------------------------------------------------------------------------

------------
SCF SETTINGS
------------
Hamiltonian:
 Density Functional     Method          .... DFT(GTOs)
 Exchange Functional    Exchange        .... WB97X-D3
 Correlation Functional Correlation     .... WB97X-D3
 Gradients option       PostSCFGGA      .... off
 Hybrid DFT is turned on
   Fraction HF Exchange ScalHFX         ....  0.195728
   Scaling of DF-GGA-X  ScalDFX         ....  0.000000
   Scaling of DF-GGA-C  ScalDFC         ....  1.000000
   Scaling of DF-LDA-C  ScalLDAC        ....  1.000000
   Perturbative correction              ....  0.000000
   Density functional embedding theory  .... OFF
 Long-range corrected/Screened/Range-Separated Hybrid DFT is turned on
   Amount of maximum screened exact exchange              ....  0.804272
   Range separation parameter mu (erf(mu*r12)/r12)        ....  0.250000


General Settings:
 Integral files         IntName         .... AQ
 Hartree-Fock type      HFTyp           .... RHF
 Total Charge           Charge          ....   -8
 Multiplicity           Mult            ....    1
 Number of Electrons    NEL             ....  166
 Basis Dimension        Dim             ....  700
 Nuclear Repulsion      ENuc            ....   1691.3239074505 Eh

Convergence Acceleration:
 DIIS                   CNVDIIS         .... on
   Start iteration      DIISMaxIt       ....    12
   Startup error        DIISStart       ....  0.200000
   # of expansion vecs  DIISMaxEq       ....     5
   Bias factor          DIISBfac        ....   1.050
   Max. coefficient     DIISMaxC        ....  10.000
 Newton-Raphson         CNVNR           .... off
 SOSCF                  CNVSOSCF        .... on
   Start iteration      SOSCFMaxIt      ....   150
   Startup grad/error   SOSCFStart      ....  0.003300
 Level Shifting         CNVShift        .... on
   Level shift para.    LevelShift      ....    0.2500
   Turn off err/grad.   ShiftErr        ....    0.0010
 Zerner damping         CNVZerner       .... off
 Static damping         CNVDamp         .... on
   Fraction old density DampFac         ....    0.7000
   Max. Damping (<1)    DampMax         ....    0.9800
   Min. Damping (>=0)   DampMin         ....    0.0000
   Turn off err/grad.   DampErr         ....    0.1000
 Fernandez-Rico         CNVRico         .... off

SCF Procedure:
 Maximum # iterations   MaxIter         ....   125
 SCF integral mode      SCFMode         .... Direct
   Integral package                     .... LIBINT
 Reset frequency        DirectResetFreq ....    20
 Integral Threshold     Thresh          ....  2.500e-11 Eh
 Primitive CutOff       TCut            ....  2.500e-12 Eh

Convergence Tolerance:
 Convergence Check Mode ConvCheckMode   .... Total+1el-Energy
 Convergence forced     ConvForced      .... 0
 Energy Change          TolE            ....  1.000e-08 Eh
 1-El. energy change                    ....  1.000e-05 Eh
 Orbital Gradient       TolG            ....  1.000e-05
 Orbital Rotation angle TolX            ....  1.000e-05
 DIIS Error             TolErr          ....  5.000e-07


Diagonalization of the overlap matrix:
Smallest eigenvalue                        ... 5.416e-06
Time for diagonalization                   ...    0.264 sec
Threshold for overlap eigenvalues          ... 1.000e-08
Number of eigenvalues below threshold      ... 0
Time for construction of square roots      ...    0.094 sec
Total time needed                          ...    0.360 sec

-------------------
DFT GRID GENERATION
-------------------

General Integration Accuracy     IntAcc      ...  4.340
Radial Grid Type                 RadialGrid  ... Gauss-Chebyshev
Angular Grid (max. acc.)         AngularGrid ... Lebedev-110
Angular grid pruning method      GridPruning ... 3 (G Style)
Weight generation scheme         WeightScheme... Becke
Basis function cutoff            BFCut       ...    1.0000e-11
Integration weight cutoff        WCut        ...    1.0000e-14
Grids for H and He will be reduced by one unit

# of grid points (after initial pruning)     ...  40992 (   0.0 sec)
# of grid points (after weights+screening)   ...  37181 (   0.1 sec)
nearest neighbour list constructed           ...    0.0 sec
Grid point re-assignment to atoms done       ...    0.0 sec
Grid point division into batches done        ...    0.0 sec
Reduced shell lists constructed in    0.3 sec

Total number of grid points                  ...    37181
Total number of batches                      ...      596
Average number of points per batch           ...       62
Average number of grid points per atom       ...     1328
Average number of shells per batch           ...   121.53 (46.39%)
Average number of basis functions per batch  ...   323.57 (46.22%)
Average number of large shells per batch     ...    87.97 (72.38%)
Average number of large basis fcns per batch ...   233.71 (72.23%)
Maximum spatial batch extension              ...  20.96, 34.10, 31.89 au
Average spatial batch extension              ...   0.77,  0.86,  1.20 au

Time for grid setup =    0.468 sec

------------------------------
INITIAL GUESS: MODEL POTENTIAL
------------------------------
Loading Hartree-Fock densities                     ... done
Calculating cut-offs                               ... done
Setting up the integral package                    ... done
Initializing the effective Hamiltonian             ... done
Starting the Coulomb interaction                   ... done (   0.7 sec)
Reading the grid                                   ... done
Mapping shells                                     ... done
Starting the XC term evaluation                    ... done (   0.8 sec)
  promolecular density results
     # of electrons  =    158.012991970
     EX              =   -153.204861022
     EC              =     -5.443789991
     EX+EC           =   -158.648651013
Transforming the Hamiltonian                       ... done (   0.1 sec)
Diagonalizing the Hamiltonian                      ... done (   0.2 sec)
Back transforming the eigenvectors                 ... done (   0.0 sec)
Now organizing SCF variables                       ... done
                      ------------------
                      INITIAL GUESS DONE (   2.4 sec)
                      ------------------

--------------------
CPCM SOLVATION MODEL
--------------------
CPCM parameters:
  Epsilon                                         ...       3.0000
  Refrac                                          ...       1.3300
  Rsolv                                           ...       1.3000
  Surface type                                    ...    GEPOL SES
  Epsilon function type                           ...         CPCM
Radii:
 Radius for Na used is    3.3165 Bohr (=   1.7550 Ang.)
 Radius for O  used is    3.2503 Bohr (=   1.7200 Ang.)
 Radius for C  used is    3.7795 Bohr (=   2.0000 Ang.)
 Radius for S  used is    4.0818 Bohr (=   2.1600 Ang.)
 Radius for H  used is    2.4566 Bohr (=   1.3000 Ang.)
Calculating surface                               ...        done! (  0.1s)
GEPOL surface points                              ...         1157
GEPOL Volume                                      ...    2148.6648
GEPOL Surface-area                                ...    1108.1200
Calculating surface distance matrix               ...        done! (  0.0s)
Performing Cholesky decomposition & store         ...        done! (  0.1s)
Overall time for CPCM initialization              ...                 0.2s
--------------
SCF ITERATIONS
--------------
ITER       Energy         Delta-E        Max-DP      RMS-DP      [F,P]     Damp
               ***  Starting incremental Fock matrix formation  ***
[compute-1-7.local:50125] 3 more processes have sent help message help-mpi-btl-base.txt / btl:no-nics
[compute-1-7.local:50125] Set MCA parameter "orte_base_help_aggregate" to 0 to see all help / error messages
  0  -1471.0569729227   0.000000000000 8.38647645  0.06055495  0.3681033 0.7000
  1  -1472.3567013166  -1.299728393888 3.49323548  0.02793762  0.1805451 0.7000
                               ***Turning on DIIS***
  2  -1472.7728304943  -0.416129177717 1.60550542  0.01471224  0.0643815 0.0000
  3  -1473.1238973829  -0.351066888558 1.42989127  0.01007718  0.1364246 0.7000
  4  -1473.2082212309  -0.084323847984 1.67901201  0.01197135  0.1197792 0.7000
  5  -1473.2917495442  -0.083528313265 1.69541632  0.01217050  0.1022259 0.7000
  6  -1473.3671041453  -0.075354601166 5.13509039  0.03785456  0.0845834 0.0000
  7  -1473.5792072691  -0.212103123823 1.21142263  0.00953281  0.0436702 0.0000
  8  -1473.6297109907  -0.050503721597 0.39235020  0.00351536  0.0285485 0.0000
  9  -1473.6575886617  -0.027877670974 0.23250679  0.00160875  0.0241263 0.0000
 10  -1473.6784188378  -0.020830176040 0.22491401  0.00210823  0.0224269 0.0000
 11  -1473.6980213260  -0.019602488259 0.31806024  0.00294294  0.0213860 0.0000
 12  -1473.7151869666  -0.017165640571 0.25679453  0.00280475  0.0196895 0.0000
 13  -1473.7278360015  -0.012649034878 0.11849366  0.00129226  0.0179867 0.0000
 14  -1473.7356994594  -0.007863457936 0.29275538  0.00309497  0.0145471 0.0000
 15  -1473.7442134321  -0.008513972683 0.06455007  0.00069057  0.0123089 0.0000
 16  -1473.7484195901  -0.004206158025 0.10582442  0.00120386  0.0093586 0.0000
 17  -1473.7521314043  -0.003711814165 0.04460891  0.00051578  0.0067956 0.0000
 18  -1473.7542857442  -0.002154339966 0.05177802  0.00044714  0.0048991 0.0000
 19  -1473.7557618441  -0.001476099871 0.04756842  0.00038168  0.0034120 0.0000
               *** Restarting incremental Fock matrix formation ***
                                   *** Resetting DIIS ***
 20  -1473.7567018277  -0.000939983588 0.04520966  0.00036094  0.0023985 0.0000
 21  -1473.7570789063  -0.000377078614 0.02711165  0.00019961  0.0018769 0.0000
 22  -1473.7573525404  -0.000273634057 0.02146114  0.00019026  0.0016117 0.0000
 23  -1473.7576565120  -0.000303971638 0.02221062  0.00023177  0.0013442 0.0000
 24  -1473.7580272158  -0.000370703837 0.02632424  0.00025582  0.0010490 0.0000
 25  -1473.7584321103  -0.000404894436 0.02160919  0.00021794  0.0009178 0.0000
 26  -1473.7588407246  -0.000408614279 0.02581528  0.00017296  0.0015541 0.0000
 27  -1473.7590610291  -0.000220304537 0.04972825  0.00051501  0.0007743 0.0000
                      *** Initiating the SOSCF procedure ***
                           *** Shutting down DIIS ***
                      *** Re-Reading the Fockian *** 
                      *** Removing any level shift *** 
ITER      Energy       Delta-E        Grad      Rot      Max-DP    RMS-DP
 28  -1473.75971091  -0.0006498858  0.002084  0.002084  0.009956  0.000127
               *** Restarting incremental Fock matrix formation ***
 29  -1473.75981916  -0.0001082407  0.001179  0.007163  0.007563  0.000075
 30  -1473.75987516  -0.0000560015  0.001103  0.059434  0.058460  0.000625
 31  -1473.76002515  -0.0001499891  0.000796  0.005038  0.020544  0.000184
 32  -1473.76006934  -0.0000441941  0.000616  0.003838  0.010076  0.000095
 33  -1473.76008295  -0.0000136090  0.000279  0.005124  0.014176  0.000126
 34  -1473.76009099  -0.0000080429  0.000154  0.004265  0.007952  0.000063
 35  -1473.76009375  -0.0000027601  0.000146  0.002559  0.005974  0.000039
 36  -1473.76009521  -0.0000014610  0.000140  0.006659  0.014513  0.000094
 37  -1473.76009866  -0.0000034428  0.000125  0.018332  0.040255  0.000249
 38  -1473.76010475  -0.0000060936  0.000146  0.013402  0.029371  0.000178
 39  -1473.76010779  -0.0000030415  0.000121  0.006835  0.015210  0.000097
 40  -1473.76010989  -0.0000020991  0.000081  0.001522  0.007200  0.000044
 41  -1473.76011072  -0.0000008276  0.000063  0.000946  0.004630  0.000026
 42  -1473.76011103  -0.0000003145  0.000044  0.000636  0.005800  0.000030
 43  -1473.76011123  -0.0000002002  0.000035  0.001733  0.014040  0.000072
 44  -1473.76011144  -0.0000002068  0.000022  0.000633  0.006527  0.000032
 45  -1473.76011152  -0.0000000799  0.000016  0.000574  0.005351  0.000026
 46  -1473.76011158  -0.0000000594  0.000009  0.000173  0.000860  0.000006
 47  -1473.76011159  -0.0000000139  0.000006  0.000052  0.000588  0.000003
 48  -1473.76011161  -0.0000000133  0.000003  0.000024  0.000674  0.000006
               *** Restarting incremental Fock matrix formation ***
                  ***Gradient check signals convergence***
              ***Rediagonalizing the Fockian in SOSCF/NRSCF***

               *****************************************************
               *                     SUCCESS                       *
               *           SCF CONVERGED AFTER  49 CYCLES          *
               *****************************************************

Setting up the final grid:

General Integration Accuracy     IntAcc      ...  4.670
Radial Grid Type                 RadialGrid  ... Gauss-Chebyshev
Angular Grid (max. acc.)         AngularGrid ... Lebedev-302
Angular grid pruning method      GridPruning ... 3 (G Style)
Weight generation scheme         WeightScheme... Becke
Basis function cutoff            BFCut       ...    1.0000e-11
Integration weight cutoff        WCut        ...    1.0000e-14
Grids for H and He will be reduced by one unit

# of grid points (after initial pruning)     ... 155166 (   0.0 sec)
# of grid points (after weights+screening)   ... 138355 (   0.5 sec)
nearest neighbour list constructed           ...    0.0 sec
Grid point re-assignment to atoms done       ...    0.0 sec
Grid point division into batches done        ...    0.8 sec
Reduced shell lists constructed in    1.6 sec

Total number of grid points                  ...   138355
Total number of batches                      ...     2175
Average number of points per batch           ...       63
Average number of grid points per atom       ...     4941
Average number of shells per batch           ...   112.80 (43.05%)
Average number of basis functions per batch  ...   297.89 (42.56%)
Average number of large shells per batch     ...    79.99 (70.91%)
Average number of large basis fcns per batch ...   210.26 (70.58%)
Maximum spatial batch extension              ...  21.22, 27.30, 27.37 au
Average spatial batch extension              ...   0.54,  0.55,  0.67 au

Final grid set up in    2.2 sec
Final integration                            ... done (   3.1 sec)
Change in XC energy                          ...     0.004791964
Integrated number of electrons               ...   165.999372824
Previous integrated no of electrons          ...   166.033479375

----------------
TOTAL SCF ENERGY
----------------

Total Energy       :        -1473.75531960 Eh          -40102.92104 eV

Components:
Nuclear Repulsion  :         1691.32390745 Eh           46023.26330 eV
Electronic Energy  :        -3165.07922705 Eh          -86126.18434 eV
One Electron Energy:        -5530.15438227 Eh         -150483.15116 eV
Two Electron Energy:         2365.07515522 Eh           64356.96682 eV
CPCM Dielectric    :           -1.99143406 Eh             -54.18968 eV

Virial components:
Potential Energy   :        -2943.45286409 Eh          -80095.42440 eV
Kinetic Energy     :         1469.69754450 Eh           39992.50337 eV
Virial Ratio       :            2.00276096


DFT components:
N(Alpha)           :       82.999686412084 electrons
N(Beta)            :       82.999686412084 electrons
N(Total)           :      165.999372824168 electrons
E(XC)              :     -114.897351181070 Eh       
DFET-embed. en.    :        0.000000000000 Eh       
CPCM Solvation Model Properties:
Surface-charge          :            7.22123869
Charge-correction       :           -0.46049047 Eh             -12.53058 eV
Free-energy (cav+disp)  :            0.00544993 Eh               0.14830 eV
Corrected G(solv)       :        -1474.21036014 Eh          -40115.30332 eV

---------------
SCF CONVERGENCE
---------------

  Last Energy change         ...    4.6212e-08  Tolerance :   1.0000e-08
  Last MAX-Density change    ...    3.6710e-04  Tolerance :   1.0000e-07
  Last RMS-Density change    ...    2.6646e-06  Tolerance :   5.0000e-09
  Last Orbital Gradient      ...    1.0855e-06  Tolerance :   1.0000e-05
  Last Orbital Rotation      ...    2.2687e-05  Tolerance :   1.0000e-05

             **** THE GBW FILE WAS UPDATED (AQ.gbw) ****
             **** DENSITY FILE WAS UPDATED (AQ.scfp) ****
             **** ENERGY FILE WAS UPDATED (AQ.en.tmp) ****
             **** THE GBW FILE WAS UPDATED (AQ.gbw) ****
             **** DENSITY FILE WAS UPDATED (AQ.scfp) ****
----------------
ORBITAL ENERGIES
----------------

  NO   OCC          E(Eh)            E(eV) 
   0   2.0000     -88.853290     -2417.8209 
   1   2.0000     -38.205849     -1039.6340 
   2   2.0000     -18.914791      -514.6976 
   3   2.0000     -18.910544      -514.5821 
   4   2.0000     -18.909514      -514.5540 
   5   2.0000     -18.822850      -512.1958 
   6   2.0000     -18.813437      -511.9397 
   7   2.0000      -9.975024      -271.4342 
   8   2.0000      -9.968446      -271.2552 
   9   2.0000      -9.966728      -271.2084 
  10   2.0000      -9.964209      -271.1399 
  11   2.0000      -9.955278      -270.8969 
  12   2.0000      -9.946169      -270.6490 
  13   2.0000      -9.941105      -270.5112 
  14   2.0000      -9.940553      -270.4962 
  15   2.0000      -9.937532      -270.4140 
  16   2.0000      -9.936749      -270.3927 
  17   2.0000      -9.934698      -270.3369 
  18   2.0000      -9.929788      -270.2033 
  19   2.0000      -9.926837      -270.1230 
  20   2.0000      -9.916592      -269.8442 
  21   2.0000      -7.913157      -215.3280 
  22   2.0000      -5.867081      -159.6514 
  23   2.0000      -5.865851      -159.6179 
  24   2.0000      -5.864389      -159.5781 
  25   2.0000      -1.971167       -53.6382 
  26   2.0000      -0.893580       -24.3155 
  27   2.0000      -0.892446       -24.2847 
  28   2.0000      -0.891484       -24.2585 
  29   2.0000      -0.884668       -24.0730 
  30   2.0000      -0.777054       -21.1447 
  31   2.0000      -0.768992       -20.9253 
  32   2.0000      -0.764185       -20.7945 
  33   2.0000      -0.727532       -19.7972 
  34   2.0000      -0.646561       -17.5938 
  35   2.0000      -0.643526       -17.5112 
  36   2.0000      -0.566580       -15.4174 
  37   2.0000      -0.541037       -14.7224 
  38   2.0000      -0.533809       -14.5257 
  39   2.0000      -0.528357       -14.3773 
  40   2.0000      -0.457906       -12.4603 
  41   2.0000      -0.420762       -11.4495 
  42   2.0000      -0.412486       -11.2243 
  43   2.0000      -0.379547       -10.3280 
  44   2.0000      -0.370318       -10.0769 
  45   2.0000      -0.329502        -8.9662 
  46   2.0000      -0.309010        -8.4086 
  47   2.0000      -0.307731        -8.3738 
  48   2.0000      -0.263851        -7.1797 
  49   2.0000      -0.258644        -7.0381 
  50   2.0000      -0.255134        -6.9426 
  51   2.0000      -0.247025        -6.7219 
  52   2.0000      -0.230583        -6.2745 
  53   2.0000      -0.223540        -6.0828 
  54   2.0000      -0.203543        -5.5387 
  55   2.0000      -0.195854        -5.3295 
  56   2.0000      -0.188056        -5.1173 
  57   2.0000      -0.184852        -5.0301 
  58   2.0000      -0.176987        -4.8161 
  59   2.0000      -0.172103        -4.6832 
  60   2.0000      -0.153659        -4.1813 
  61   2.0000      -0.149062        -4.0562 
  62   2.0000      -0.134956        -3.6723 
  63   2.0000      -0.134156        -3.6506 
  64   2.0000      -0.131503        -3.5784 
  65   2.0000      -0.125208        -3.4071 
  66   2.0000      -0.118852        -3.2341 
  67   2.0000      -0.115788        -3.1508 
  68   2.0000      -0.097904        -2.6641 
  69   2.0000      -0.089925        -2.4470 
  70   2.0000      -0.087812        -2.3895 
  71   2.0000      -0.080703        -2.1960 
  72   2.0000      -0.059757        -1.6261 
  73   2.0000      -0.025838        -0.7031 
  74   2.0000      -0.023299        -0.6340 
  75   2.0000      -0.016553        -0.4504 
  76   2.0000      -0.011611        -0.3160 
  77   2.0000       0.007591         0.2066 
  78   2.0000       0.024203         0.6586 
  79   2.0000       0.143073         3.8932 
  80   2.0000       0.151462         4.1215 
  81   2.0000       0.180898         4.9225 
  82   2.0000       0.217237         5.9113 
  83   0.0000       0.331846         9.0300 
  84   0.0000       0.345985         9.4147 
  85   0.0000       0.347813         9.4645 
  86   0.0000       0.366410         9.9705 
  87   0.0000       0.375907        10.2289 
  88   0.0000       0.381094        10.3701 
  89   0.0000       0.382198        10.4001 
  90   0.0000       0.414093        11.2681 
  91   0.0000       0.415718        11.3123 
  92   0.0000       0.425216        11.5707 
  93   0.0000       0.427222        11.6253 
  94   0.0000       0.448987        12.2176 
  95   0.0000       0.470682        12.8079 
  96   0.0000       0.473519        12.8851 
  97   0.0000       0.474610        12.9148 
  98   0.0000       0.477072        12.9818 
  99   0.0000       0.483958        13.1692 
 100   0.0000       0.487109        13.2549 
 101   0.0000       0.496861        13.5203 
 102   0.0000       0.504302        13.7227 
 103   0.0000       0.515009        14.0141 
 104   0.0000       0.523557        14.2467 
 105   0.0000       0.531318        14.4579 
 106   0.0000       0.535358        14.5678 
 107   0.0000       0.538619        14.6566 
 108   0.0000       0.542855        14.7718 
 109   0.0000       0.546238        14.8639 
 110   0.0000       0.547669        14.9028 
 111   0.0000       0.549763        14.9598 
 112   0.0000       0.560529        15.2528 
 113   0.0000       0.567656        15.4467 
 114   0.0000       0.569007        15.4835 
 115   0.0000       0.576900        15.6982 
 116   0.0000       0.585033        15.9196 
 117   0.0000       0.587588        15.9891 
 118   0.0000       0.597256        16.2522 
 119   0.0000       0.599537        16.3142 
 120   0.0000       0.604401        16.4466 
 121   0.0000       0.612571        16.6689 
 122   0.0000       0.614691        16.7266 
 123   0.0000       0.620893        16.8954 
 124   0.0000       0.623929        16.9780 
 125   0.0000       0.632821        17.2199 
 126   0.0000       0.640906        17.4400 
 127   0.0000       0.649599        17.6765 
 128   0.0000       0.654030        17.7970 
 129   0.0000       0.659732        17.9522 
 130   0.0000       0.662974        18.0404 
 131   0.0000       0.665205        18.1011 
 132   0.0000       0.671947        18.2846 
 133   0.0000       0.674308        18.3488 
 134   0.0000       0.685236        18.6462 
 135   0.0000       0.687656        18.7121 
 136   0.0000       0.689278        18.7562 
 137   0.0000       0.694957        18.9107 
 138   0.0000       0.703135        19.1333 
 139   0.0000       0.709941        19.3185 
 140   0.0000       0.710871        19.3438 
 141   0.0000       0.716354        19.4930 
 142   0.0000       0.720969        19.6186 
 143   0.0000       0.725275        19.7357 
 144   0.0000       0.729611        19.8537 
 145   0.0000       0.738801        20.1038 
 146   0.0000       0.742431        20.2026 
 147   0.0000       0.750353        20.4181 
 148   0.0000       0.761285        20.7156 
 149   0.0000       0.762493        20.7485 
 150   0.0000       0.764447        20.8017 
 151   0.0000       0.771188        20.9851 
 152   0.0000       0.778733        21.1904 
 153   0.0000       0.780543        21.2397 
 154   0.0000       0.785020        21.3615 
 155   0.0000       0.791450        21.5365 
 156   0.0000       0.796505        21.6740 
 157   0.0000       0.800480        21.7822 
 158   0.0000       0.810330        22.0502 
 159   0.0000       0.812336        22.1048 
 160   0.0000       0.821324        22.3494 
 161   0.0000       0.830488        22.5987 
 162   0.0000       0.838367        22.8131 
 163   0.0000       0.850233        23.1360 
 164   0.0000       0.851919        23.1819 
 165   0.0000       0.861332        23.4380 
 166   0.0000       0.869313        23.6552 
 167   0.0000       0.870892        23.6982 
 168   0.0000       0.876879        23.8611 
 169   0.0000       0.881910        23.9980 
 170   0.0000       0.889615        24.2077 
 171   0.0000       0.895679        24.3727 
 172   0.0000       0.898456        24.4482 
 173   0.0000       0.904309        24.6075 
 174   0.0000       0.915458        24.9109 
 175   0.0000       0.921122        25.0650 
 176   0.0000       0.925982        25.1972 
 177   0.0000       0.929593        25.2955 
 178   0.0000       0.942948        25.6589 
 179   0.0000       0.949444        25.8357 
 180   0.0000       0.952846        25.9283 
 181   0.0000       0.960349        26.1324 
 182   0.0000       0.971194        26.4275 
 183   0.0000       0.982718        26.7411 
 184   0.0000       0.986003        26.8305 
 185   0.0000       0.986800        26.8522 
 186   0.0000       0.993532        27.0354 
 187   0.0000       0.996825        27.1250 
 188   0.0000       1.014928        27.6176 
 189   0.0000       1.019431        27.7401 
 190   0.0000       1.023697        27.8562 
 191   0.0000       1.034128        28.1401 
 192   0.0000       1.039765        28.2935 
 193   0.0000       1.056820        28.7575 
 194   0.0000       1.064182        28.9579 
 195   0.0000       1.069614        29.1057 
 196   0.0000       1.071832        29.1660 
 197   0.0000       1.077151        29.3108 
 198   0.0000       1.088068        29.6078 
 199   0.0000       1.100281        29.9402 
 200   0.0000       1.102764        30.0077 
 201   0.0000       1.113213        30.2921 
 202   0.0000       1.114720        30.3331 
 203   0.0000       1.124936        30.6111 
 204   0.0000       1.129209        30.7273 
 205   0.0000       1.136273        30.9196 
 206   0.0000       1.137351        30.9489 
 207   0.0000       1.146257        31.1912 
 208   0.0000       1.151785        31.3417 
 209   0.0000       1.153354        31.3844 
 210   0.0000       1.166006        31.7286 
 211   0.0000       1.172908        31.9164 
 212   0.0000       1.176333        32.0097 
 213   0.0000       1.178606        32.0715 
 214   0.0000       1.189236        32.3607 
 215   0.0000       1.194723        32.5101 
 216   0.0000       1.201546        32.6957 
 217   0.0000       1.211825        32.9754 
 218   0.0000       1.221058        33.2267 
 219   0.0000       1.238158        33.6920 
 220   0.0000       1.239297        33.7230 
 221   0.0000       1.243162        33.8282 
 222   0.0000       1.256322        34.1863 
 223   0.0000       1.258909        34.2567 
 224   0.0000       1.262470        34.3536 
 225   0.0000       1.271184        34.5907 
 226   0.0000       1.285786        34.9880 
 227   0.0000       1.292390        35.1677 
 228   0.0000       1.295922        35.2638 
 229   0.0000       1.304154        35.4878 
 230   0.0000       1.315487        35.7962 
 231   0.0000       1.319555        35.9069 
 232   0.0000       1.321020        35.9468 
 233   0.0000       1.341310        36.4989 
 234   0.0000       1.345921        36.6244 
 235   0.0000       1.352975        36.8163 
 236   0.0000       1.366250        37.1775 
 237   0.0000       1.372896        37.3584 
 238   0.0000       1.388289        37.7773 
 239   0.0000       1.400595        38.1121 
 240   0.0000       1.406810        38.2813 
 241   0.0000       1.410559        38.3833 
 242   0.0000       1.428683        38.8764 
 243   0.0000       1.455706        39.6118 
 244   0.0000       1.466099        39.8946 
 245   0.0000       1.467841        39.9420 
 246   0.0000       1.471172        40.0326 
 247   0.0000       1.496977        40.7348 
 248   0.0000       1.502986        40.8983 
[...]
  28   H   :   -0.000005230    0.000012584   -0.000011949

Difference to translation invariance:
           :   -0.0000000000    0.0000000001   -0.0000000001

Norm of the cartesian gradient     ...    0.0051491515
RMS gradient                       ...    0.0005618185
MAX gradient                       ...    0.0034888450

-------
TIMINGS
-------

Total SCF gradient time            ...     1241.705 sec

One electron gradient       ....       1.256 sec  (  0.1%)
Prescreening matrices       ....       1.001 sec  (  0.1%)
Two electron gradient       ....    1212.783 sec  ( 97.7%)
XC gradient                 ....      12.767 sec  (  1.0%)
CPCM gradient               ....       8.139 sec  (  0.7%)
   A-Matrix (El+Nuc)        ....       0.046 sec  (  0.0%)
   Potential                ....       8.093 sec  (  0.7%)
------------------------------------------------------------------------------
                         ORCA GEOMETRY RELAXATION STEP
------------------------------------------------------------------------------

Reading the OPT-File                    .... done
Getting information on internals        .... done
Copying old internal coords+grads       .... done
Making the new internal coordinates     .... (new redundants).... done
Validating the new internal coordinates .... (new redundants).... done
Calculating the B-matrix                .... done
Calculating the G,G- and P matrices     .... done
Transforming gradient to internals      .... done
Projecting the internal gradient        .... done
Number of atoms                         ....  28
Number of internal coordinates          .... 151
Current Energy                          .... -1474.066703099 Eh
Current gradient norm                   ....     0.005149151 Eh/bohr
Maximum allowed component of the step   ....  0.300
Current trust radius                    ....  0.300
Updating the Hessian (BFGS)             .... done
Forming the augmented Hessian           .... done
Diagonalizing the augmented Hessian     .... done
Last element of RFO vector              ....  0.715437201
Lowest eigenvalues of augmented Hessian:
 -0.003490724  0.000010088  0.003659640  0.012541702  0.017857734
Length of the computed step             ....  0.976573544
Warning: the length of the step is outside the trust region - taking restricted step instead
The input lambda is                     ....    -0.003491
   iter:   1  x=   -0.005148  g=  521.300933 f(x)=     0.863696
   iter:   2  x=   -0.007276  g=  169.993786 f(x)=     0.361866
   iter:   3  x=   -0.009545  g=   61.894312 f(x)=     0.140412
   iter:   4  x=   -0.011172  g=   27.868291 f(x)=     0.045360
   iter:   5  x=   -0.011703  g=   17.509477 f(x)=     0.009297
   iter:   6  x=   -0.011744  g=   15.263671 f(x)=     0.000614
   iter:   7  x=   -0.011744  g=   15.109459 f(x)=     0.000003
   iter:   8  x=   -0.011744  g=   15.108676 f(x)=     0.000000
   iter:   9  x=   -0.011744  g=   15.108676 f(x)=     0.000000
The output lambda is                    ....    -0.011744 (9 iterations)
The final length of the internal step   ....  0.300000000
Converting the step to cartesian space:
 Initial RMS(Int)=    0.0244136538
Transforming coordinates:
 Iter   0:  RMS(Cart)=    0.0288330458 RMS(Int)=    0.0163967523
 Iter   1:  RMS(Cart)=    0.0105883009 RMS(Int)=    0.0080461522
 Iter   2:  RMS(Cart)=    0.0000382921 RMS(Int)=    0.0000031800
 Iter   3:  RMS(Cart)=    0.0000006421 RMS(Int)=    0.0000001740
 Iter   4:  RMS(Cart)=    0.0000000178 RMS(Int)=    0.0000000044
done
Storing new coordinates                 .... done

                                .--------------------.
          ----------------------|Geometry convergence|-------------------------
          Item                value                   Tolerance       Converged
          ---------------------------------------------------------------------
          Energy change      -0.0010804874            0.0000050000      NO
          RMS gradient        0.0002932252            0.0001000000      NO
          MAX gradient        0.0035604077            0.0003000000      NO
          RMS step            0.0244136538            0.0020000000      NO
          MAX step            0.2992402332            0.0040000000      NO
          ........................................................
          Max(Bonds)      0.1584      Max(Angles)    0.51
          Max(Dihed)        0.46      Max(Improp)    0.00
          ---------------------------------------------------------------------

The optimization has not yet converged - more geometry cycles are needed


    ---------------------------------------------------------------------------
                         Redundant Internal Coordinates
                            (Angstroem and degrees)

        Definition                    Value    dE/dq     Step     New-Value
    ----------------------------------------------------------------------------
     1. B(O   1,Na  0)               15.7228 -0.003560  0.1584   15.8811   
     2. B(C   2,O   1)                1.3307  0.000083 -0.0000    1.3307   
     3. B(C   3,C   2)                1.4758 -0.000078 -0.0000    1.4757   
     4. B(C   4,C   3)                1.3750 -0.000146  0.0002    1.3752   
     5. B(C   5,C   4)                1.4436  0.000008 -0.0000    1.4436   
     6. B(C   6,C   5)                1.4017 -0.000012 -0.0000    1.4017   
     7. B(C   7,C   6)                1.3827  0.000030 -0.0000    1.3827   
     8. B(C   8,C   7)                1.4704 -0.000023 -0.0001    1.4704   
     9. B(C   8,C   3)                1.4767 -0.000010 -0.0001    1.4767   
    10. B(C   9,C   8)                1.3817 -0.000087  0.0001    1.3819   
    11. B(O  10,C   9)                1.3329 -0.000009  0.0000    1.3330   
    12. B(C  11,C   9)                1.4772  0.000068 -0.0002    1.4770   
    13. B(C  12,C  11)                1.3740 -0.000019  0.0001    1.3740   
    14. B(C  13,C  12)                1.4602 -0.000004 -0.0001    1.4602   
    15. B(S  14,C  13)                1.7124  0.000004  0.0001    1.7125   
    16. B(O  15,S  14)                1.4818 -0.000009 -0.0000    1.4818   
    17. B(O  16,S  14)                1.4880 -0.000023 -0.0001    1.4879   
    18. B(O  17,S  14)                1.4824 -0.000010  0.0000    1.4825   
    19. B(C  18,C  13)                1.4116  0.000027 -0.0002    1.4113   
    20. B(C  19,C  18)                1.3716 -0.000006  0.0001    1.3717   
    21. B(C  20,C  19)                1.4696 -0.000013  0.0000    1.4696   
    22. B(C  20,C  11)                1.4785  0.000031 -0.0001    1.4784   
    23. B(C  20,C   2)                1.3846  0.000032 -0.0000    1.3846   
    24. B(H  21,C   4)                1.0881 -0.000088  0.0002    1.0883   
    25. B(H  22,C   5)                1.0885  0.000001  0.0000    1.0885   
    26. B(H  23,C   6)                1.0950  0.000005 -0.0000    1.0950   
    27. B(H  24,C   7)                1.0863 -0.000015  0.0000    1.0864   
    28. B(H  25,C  12)                1.0857  0.000002  0.0000    1.0857   
    29. B(H  26,C  18)                1.0885 -0.000002 -0.0000    1.0884   
    30. B(H  27,C  19)                1.0863 -0.000000  0.0000    1.0863   
    31. A(Na  0,O   1,C   2)          162.56  0.000318   -0.51    162.05   
    32. A(O   1,C   2,C  20)          123.68  0.000064   -0.02    123.67   
    33. A(C   3,C   2,C  20)          117.07 -0.000052    0.02    117.09   
    34. A(O   1,C   2,C   3)          119.25 -0.000011   -0.00    119.25   
    35. A(C   2,C   3,C   8)          119.32  0.000100   -0.03    119.29   
    36. A(C   2,C   3,C   4)          120.71 -0.000134    0.03    120.74   
    37. A(C   4,C   3,C   8)          119.97  0.000034   -0.00    119.96   
    38. A(C   3,C   4,C   5)          123.80  0.000031   -0.01    123.79   
    39. A(C   3,C   4,H  21)          115.82 -0.000138    0.03    115.85   
    40. A(C   5,C   4,H  21)          120.36  0.000107   -0.03    120.33   
    41. A(C   6,C   5,H  22)          121.49  0.000020   -0.00    121.48   
    42. A(C   4,C   5,H  22)          121.28  0.000021   -0.00    121.28   
    43. A(C   4,C   5,C   6)          116.51 -0.000042    0.01    116.52   
    44. A(C   5,C   6,C   7)          122.37  0.000015   -0.01    122.37   
    45. A(C   7,C   6,H  23)          118.44 -0.000009    0.00    118.45   
    46. A(C   5,C   6,H  23)          119.18 -0.000007    0.00    119.18   
    47. A(C   8,C   7,H  24)          117.27  0.000110   -0.03    117.23   
    48. A(C   6,C   7,C   8)          122.18 -0.000017    0.01    122.19   
    49. A(C   6,C   7,H  24)          120.55 -0.000093    0.03    120.58   
    50. A(C   3,C   8,C   9)          123.43 -0.000023    0.01    123.44   
    51. A(C   3,C   8,C   7)          115.06 -0.000021    0.00    115.07   
    52. A(C   7,C   8,C   9)          121.51  0.000044   -0.02    121.49   
    53. A(O  10,C   9,C  11)          119.78  0.000022    0.00    119.78   
    54. A(C   8,C   9,C  11)          117.55 -0.000026    0.01    117.56   
    55. A(C   8,C   9,O  10)          122.67  0.000004   -0.01    122.66   
    56. A(C   9,C  11,C  12)          120.96 -0.000034    0.01    120.97   
    57. A(C  12,C  11,C  20)          120.25  0.000007   -0.00    120.24   
    58. A(C   9,C  11,C  20)          118.79  0.000027   -0.01    118.78   
    59. A(C  13,C  12,H  25)          119.81  0.000002    0.01    119.82   
    60. A(C  11,C  12,H  25)          116.70  0.000007   -0.00    116.70   
    61. A(C  11,C  12,C  13)          123.47 -0.000009   -0.01    123.46   
    62. A(S  14,C  13,C  18)          121.33 -0.000008    0.03    121.35   
    63. A(C  12,C  13,C  18)          116.09  0.000002    0.01    116.11   
    64. A(C  12,C  13,S  14)          121.80 -0.000002    0.01    121.81   
    65. A(O  16,S  14,O  17)          107.91 -0.000013   -0.00    107.91   
    66. A(O  15,S  14,O  17)          110.58 -0.000003   -0.00    110.58   
    67. A(C  13,S  14,O  17)          109.46  0.000012    0.01    109.47   
    68. A(O  15,S  14,O  16)          109.18 -0.000005    0.02    109.19   
    69. A(C  13,S  14,O  16)          111.71  0.000020   -0.02    111.69   
    70. A(C  13,S  14,O  15)          108.02 -0.000011   -0.01    108.01   
    71. A(C  13,C  18,C  19)          122.33  0.000005   -0.00    122.32   
    72. A(C  19,C  18,H  26)          119.39 -0.000004    0.01    119.39   
    73. A(C  13,C  18,H  26)          118.29 -0.000001   -0.00    118.28   
    74. A(C  20,C  19,H  27)          117.11 -0.000004    0.01    117.12   
    75. A(C  18,C  19,H  27)          119.99  0.000013   -0.00    119.98   
    76. A(C  18,C  19,C  20)          122.88 -0.000009   -0.00    122.88   
    77. A(C   2,C  20,C  11)          123.79 -0.000025   -0.00    123.79   
    78. A(C  11,C  20,C  19)          114.84  0.000003    0.00    114.85   
    79. A(C   2,C  20,C  19)          121.36  0.000023   -0.00    121.36   
    80. D(C   3,C   2,O   1,Na  0)     28.53  0.000068   -0.35     28.18   
    81. D(C  20,C   2,O   1,Na  0)   -151.80  0.000058   -0.37   -152.17   
    82. D(C   8,C   3,C   2,C  20)      1.54 -0.000015    0.06      1.60   
    83. D(C   4,C   3,C   2,C  20)   -178.45 -0.000009    0.05   -178.39   
    84. D(C   8,C   3,C   2,O   1)   -178.77 -0.000024    0.04   -178.73   
    85. D(C   4,C   3,C   2,O   1)      1.25 -0.000018    0.03      1.28   
    86. D(C   5,C   4,C   3,C   2)    178.52 -0.000004    0.01    178.53   
    87. D(H  21,C   4,C   3,C   8)   -179.65 -0.000003    0.01   -179.64   
    88. D(H  21,C   4,C   3,C   2)      0.33 -0.000010    0.02      0.35   
    89. D(C   5,C   4,C   3,C   8)     -1.46  0.000003    0.00     -1.46   
    90. D(H  22,C   5,C   4,C   3)    174.01 -0.000004    0.01    174.02   
    91. D(C   6,C   5,C   4,H  21)   -178.31 -0.000000   -0.01   -178.33   
    92. D(H  22,C   5,C   4,H  21)     -7.87 -0.000002    0.00     -7.87   
    93. D(C   6,C   5,C   4,C   3)      3.57 -0.000002   -0.01      3.56   
    94. D(H  23,C   6,C   5,H  22)      7.28  0.000002   -0.01      7.28   
    95. D(H  23,C   6,C   5,C   4)    177.70 -0.000000    0.01    177.71   
    96. D(C   7,C   6,C   5,H  22)   -173.61  0.000002   -0.01   -173.62   
    97. D(C   7,C   6,C   5,C   4)     -3.19 -0.000000    0.00     -3.18   
    98. D(H  24,C   7,C   6,H  23)      0.66 -0.000000    0.01      0.67   
    99. D(H  24,C   7,C   6,C   5)   -178.46 -0.000000    0.02   -178.44   
   100. D(C   8,C   7,C   6,H  23)    179.93  0.000003   -0.00    179.93   
   101. D(C   8,C   7,C   6,C   5)      0.81  0.000004    0.00      0.82   
   102. D(C   9,C   8,C   7,H  24)      0.46  0.000002   -0.01      0.45   
   103. D(C   9,C   8,C   7,C   6)   -178.84 -0.000001    0.00   -178.84   
   104. D(C   3,C   8,C   7,H  24)   -179.34  0.000001   -0.02   -179.36   
   105. D(C   3,C   8,C   7,C   6)      1.36 -0.000001   -0.01      1.36   
   106. D(C   9,C   8,C   3,C   4)    179.18 -0.000003   -0.00    179.18   
   107. D(C   9,C   8,C   3,C   2)     -0.80  0.000003   -0.01     -0.81   
   108. D(C   7,C   8,C   3,C   4)     -1.02 -0.000002    0.01     -1.02   
   109. D(C   7,C   8,C   3,C   2)    179.00  0.000004   -0.00    178.99   
   110. D(O  10,C   9,C   8,C   3)    179.50  0.000005    0.00    179.51   
   111. D(C  11,C   9,C   8,C   7)    179.12  0.000011   -0.05    179.07   
   112. D(C  11,C   9,C   8,C   3)     -1.10  0.000012   -0.04     -1.14   
   113. D(O  10,C   9,C   8,C   7)     -0.28  0.000004   -0.01     -0.29   
   114. D(C  20,C  11,C   9,O  10)   -178.39 -0.000008    0.00   -178.38   
   115. D(C  20,C  11,C   9,C   8)      2.20 -0.000015    0.05      2.25   
   116. D(C  12,C  11,C   9,O  10)      2.21  0.000009   -0.04      2.17   
   117. D(C  12,C  11,C   9,C   8)   -177.20  0.000003    0.01   -177.20   
   118. D(H  25,C  12,C  11,C  20)   -179.47  0.000010   -0.03   -179.50   
   119. D(H  25,C  12,C  11,C   9)     -0.08 -0.000008    0.01     -0.07   
   120. D(C  13,C  12,C  11,C  20)     -0.99  0.000001   -0.01     -1.00   
   121. D(C  13,C  12,C  11,C   9)    178.41 -0.000017    0.03    178.44   
   122. D(C  18,C  13,C  12,H  25)   -177.84  0.000007   -0.04   -177.88   
   123. D(C  18,C  13,C  12,C  11)      3.72  0.000015   -0.05      3.67   
   124. D(S  14,C  13,C  12,H  25)     -7.88 -0.000050    0.23     -7.65   
   125. D(S  14,C  13,C  12,C  11)    173.68 -0.000041    0.21    173.89   
   126. D(O  17,S  14,C  13,C  18)   -138.56 -0.000084    0.46   -138.10   
   127. D(O  17,S  14,C  13,C  12)     52.00 -0.000025    0.18     52.18   
   128. D(O  16,S  14,C  13,C  18)    101.99 -0.000088    0.46    102.45   
   129. D(O  16,S  14,C  13,C  12)    -67.45 -0.000030    0.19    -67.26   
   130. D(O  15,S  14,C  13,C  18)    -18.09 -0.000088    0.46    -17.63   
   131. D(O  15,S  14,C  13,C  12)    172.47 -0.000029    0.18    172.65   
   132. D(H  26,C  18,C  13,S  14)      7.29  0.000041   -0.20      7.09   
   133. D(H  26,C  18,C  13,C  12)    177.30 -0.000015    0.07    177.37   
   134. D(C  19,C  18,C  13,S  14)   -173.23  0.000034   -0.18   -173.41   
   135. D(C  19,C  18,C  13,C  12)     -3.21 -0.000022    0.08     -3.13   
   136. D(H  27,C  19,C  18,H  26)      1.22  0.000003   -0.02      1.20   
   137. D(H  27,C  19,C  18,C  13)   -178.27  0.000010   -0.03   -178.30   
   138. D(C  20,C  19,C  18,H  26)    179.55  0.000004   -0.04    179.51   
   139. D(C  20,C  19,C  18,C  13)      0.06  0.000011   -0.05      0.02   
   140. D(C  19,C  20,C   2,O   1)      0.00  0.000020   -0.04     -0.04   
   141. D(C  11,C  20,C   2,C   3)     -0.40  0.000013   -0.05     -0.45   
   142. D(C  11,C  20,C   2,O   1)    179.92  0.000022   -0.03    179.89   
   143. D(C  11,C  20,C  19,H  27)   -178.94  0.000007   -0.04   -178.98   
   144. D(C   2,C  20,C  19,H  27)      0.99  0.000009   -0.03      0.96   
   145. D(C   2,C  20,C  19,C  18)   -177.39  0.000008   -0.01   -177.40   
   146. D(C  19,C  20,C  11,C  12)     -2.17 -0.000012    0.05     -2.12   
   147. D(C  19,C  20,C  11,C   9)    178.43  0.000006    0.01    178.43   
   148. D(C   2,C  20,C  11,C  12)    177.91 -0.000015    0.04    177.95   
   149. D(C  11,C  20,C  19,C  18)      2.69  0.000006   -0.02      2.67   
   150. D(C   2,C  20,C  11,C   9)     -1.50  0.000003   -0.00     -1.50   
   151. D(C  19,C  20,C   2,C   3)    179.68  0.000010   -0.06    179.63   
    ----------------------------------------------------------------------------




    ----------------------------------------------------------------------------
                                  WARNING !!!
       The optimization did not converge but reached the maximum number of
       optimization cycles.
       Please check your results very carefully.
    ----------------------------------------------------------------------------



                            ***************************************
                            *     ORCA property calculations      *
                            ***************************************

                                    ---------------------
                                    Active property flags
                                    ---------------------
   (+) Dipole Moment


------------------------------------------------------------------------------
                       ORCA ELECTRIC PROPERTIES CALCULATION
------------------------------------------------------------------------------

Dipole Moment Calculation                       ... on
Quadrupole Moment Calculation                   ... off
Polarizability Calculation                      ... off
GBWName                                         ... AQ.gbw
Electron density file                           ... AQ.scfp
The origin for moment calculation is the CENTER OF MASS  = ( 6.362276, -2.539325 -0.072838)

-------------
DIPOLE MOMENT
-------------
                                X             Y             Z
Electronic contribution:     64.21159     -33.34534       6.31091
Nuclear contribution   :     20.01255       6.62988       2.63613
                        -----------------------------------------
Total Dipole Moment    :     84.22414     -26.71546       8.94704
                        -----------------------------------------
Magnitude (a.u.)       :     88.81144
Magnitude (Debye)      :    225.74074



--------------------
Rotational spectrum 
--------------------
 
Rotational constants in cm-1:     0.007541     0.001777     0.001452 
Rotational constants in MHz :   226.072651    53.279023    43.538200 

 Dipole components along the rotational axes: 
x,y,z [a.u.] :    87.978166    12.098375    -0.971217 
x,y,z [Debye]:   223.622727    30.751626    -2.468638 

 
--------------------------------------------------------------------------
[[61216,1],0]: A high-performance Open MPI point-to-point messaging module
was unable to find any relevant network interfaces:

Module: OpenFabrics (openib)
  Host: compute-1-7

Another transport will be used instead, although this may result in
lower performance.

NOTE: You can disable this warning by setting the MCA parameter
btl_base_warn_component_unused to 0.
--------------------------------------------------------------------------
[compute-1-7.local:59736] 3 more processes have sent help message help-mpi-btl-base.txt / btl:no-nics
[compute-1-7.local:59736] Set MCA parameter "orte_base_help_aggregate" to 0 to see all help / error messages

Timings for individual modules:

Sum of individual times         ...   319759.445 sec (=5329.324 min)
GTO integral calculation        ...      122.108 sec (=   2.035 min)   0.0 %
SCF iterations                  ...   213309.948 sec (=3555.166 min)  66.7 %
SCF Gradient evaluation         ...   106304.687 sec (=1771.745 min)  33.2 %
Geometry relaxation             ...       22.701 sec (=   0.378 min)   0.0 %
                             ****ORCA TERMINATED NORMALLY****
TOTAL RUN TIME: 3 days 16 hours 49 minutes 47 seconds 584 msec
